 Entering Gaussian System, Link 0=g16
 Input=MaDA-4-energy-conf-1.com
 Output=MaDA-4-energy-conf-1.log
 Initial command:
 /public/home/zhoujunsu/g16/l1.exe "/public/home/zhoujunsu/g16/scratch/Gau-444617.inp" -scrdir="/public/home/zhoujunsu/g16/scratch/"
 Entering Link 1 = /public/home/zhoujunsu/g16/l1.exe PID=    444618.
  
 Copyright (c) 1988,1990,1992,1993,1995,1998,2003,2009,2016,
            Gaussian, Inc.  All Rights Reserved.
  
 This is part of the Gaussian(R) 16 program.  It is based on
 the Gaussian(R) 09 system (copyright 2009, Gaussian, Inc.),
 the Gaussian(R) 03 system (copyright 2003, Gaussian, Inc.),
 the Gaussian(R) 98 system (copyright 1998, Gaussian, Inc.),
 the Gaussian(R) 94 system (copyright 1995, Gaussian, Inc.),
 the Gaussian 92(TM) system (copyright 1992, Gaussian, Inc.),
 the Gaussian 90(TM) system (copyright 1990, Gaussian, Inc.),
 the Gaussian 88(TM) system (copyright 1988, Gaussian, Inc.),
 the Gaussian 86(TM) system (copyright 1986, Carnegie Mellon
 University), and the Gaussian 82(TM) system (copyright 1983,
 Carnegie Mellon University). Gaussian is a federally registered
 trademark of Gaussian, Inc.
  
 This software contains proprietary and confidential information,
 including trade secrets, belonging to Gaussian, Inc.
  
 This software is provided under written license and may be
 used, copied, transmitted, or stored only in accord with that
 written license.
  
 The following legend is applicable only to US Government
 contracts under FAR:
  
                    RESTRICTED RIGHTS LEGEND
  
 Use, reproduction and disclosure by the US Government is
 subject to restrictions as set forth in subparagraphs (a)
 and (c) of the Commercial Computer Software - Restricted
 Rights clause in FAR 52.227-19.
  
 Gaussian, Inc.
 340 Quinnipiac St., Bldg. 40, Wallingford CT 06492
  
  
 ---------------------------------------------------------------
 Warning -- This program may not be used in any manner that
 competes with the business of Gaussian, Inc. or will provide
 assistance to any competitor of Gaussian, Inc.  The licensee
 of this program is prohibited from giving any competitor of
 Gaussian, Inc. access to this program.  By using this program,
 the user acknowledges that Gaussian, Inc. is engaged in the
 business of creating and licensing software in the field of
 computational chemistry and represents and warrants to the
 licensee that it is not a competitor of Gaussian, Inc. and that
 it will not use this program in any manner prohibited above.
 ---------------------------------------------------------------
  

 Cite this work as:
 Gaussian 16, Revision A.03,
 M. J. Frisch, G. W. Trucks, H. B. Schlegel, G. E. Scuseria, 
 M. A. Robb, J. R. Cheeseman, G. Scalmani, V. Barone, 
 G. A. Petersson, H. Nakatsuji, X. Li, M. Caricato, A. V. Marenich, 
 J. Bloino, B. G. Janesko, R. Gomperts, B. Mennucci, H. P. Hratchian, 
 J. V. Ortiz, A. F. Izmaylov, J. L. Sonnenberg, D. Williams-Young, 
 F. Ding, F. Lipparini, F. Egidi, J. Goings, B. Peng, A. Petrone, 
 T. Henderson, D. Ranasinghe, V. G. Zakrzewski, J. Gao, N. Rega, 
 G. Zheng, W. Liang, M. Hada, M. Ehara, K. Toyota, R. Fukuda, 
 J. Hasegawa, M. Ishida, T. Nakajima, Y. Honda, O. Kitao, H. Nakai, 
 T. Vreven, K. Throssell, J. A. Montgomery, Jr., J. E. Peralta, 
 F. Ogliaro, M. J. Bearpark, J. J. Heyd, E. N. Brothers, K. N. Kudin, 
 V. N. Staroverov, T. A. Keith, R. Kobayashi, J. Normand, 
 K. Raghavachari, A. P. Rendell, J. C. Burant, S. S. Iyengar, 
 J. Tomasi, M. Cossi, J. M. Millam, M. Klene, C. Adamo, R. Cammi, 
 J. W. Ochterski, R. L. Martin, K. Morokuma, O. Farkas, 
 J. B. Foresman, and D. J. Fox, Gaussian, Inc., Wallingford CT, 2016.
 
 ******************************************
 Gaussian 16:  ES64L-G16RevA.03 25-Dec-2016
                11-Jul-2023 
 ******************************************
 %mem=28gb
 %nproc=14
 Will use up to   14 processors via shared memory.
 %chk=MaDA-4-conf-1.chk
 ----------------------------------------------------------------------
 # wb97xd/6-311++G(d,p) integral(ultrafinegrid) guess=read geom=check s
 crf=(cpcm,read,solvent=water)
 ----------------------------------------------------------------------
 1/29=2,38=1,40=2,172=1/1;
 2/12=2,40=1/2;
 3/5=4,6=6,7=1111,11=2,14=-4,25=1,30=1,70=2103,72=1,74=-58,75=-5,116=-2/1,2,3;
 4/5=1/1;
 5/5=2,38=6,53=1/2;
 6/7=2,8=2,9=2,10=2,28=1/1;
 99/5=1,9=1/99;
 ----------------------------------------------------------------------
 Candidate Structure: MaDA-TS-1, Conformer: 1, Single-point energies ca
 lculated with wB97X-D/6-311++G(d,p)
 ----------------------------------------------------------------------
 Structure from the checkpoint file:  "MaDA-4-conf-1.chk"
 Charge =  0 Multiplicity = 1
 Redundant internal coordinates found in file.  (old form).
 C,0,-3.8451007365,-1.0467069418,-0.0001526456
 C,0,-3.7579417006,0.3513943452,0.0000023654
 C,0,-4.8524498803,1.202487394,0.0000807654
 C,0,-6.1030768282,0.5907301559,-0.0000060321
 C,0,-6.2321352256,-0.8133915687,-0.0001637113
 C,0,-5.1151671782,-1.6342948914,-0.0002377399
 C,0,-2.4838573115,-1.5137733392,-0.0001845642
 C,0,-1.6967303657,-0.4067393282,-0.0000489099
 H,0,-4.7538467474,2.2816415255,0.0002017832
 H,0,-7.2257116789,-1.2537998322,-0.0002286566
 H,0,-5.231281051,-2.7133068389,-0.0003590664
 H,0,-2.1496195852,-2.5412644126,-0.0003035164
 O,0,-7.1892600477,1.408776494,0.0000689978
 H,0,-7.9957709327,0.8768916289,-0.0000042305
 O,0,-2.4580827575,0.7416368133,0.0000657058
 C,0,-0.2493015871,-0.2189607033,-0.000017941
 C,0,0.2957296354,1.0656333938,-0.0000424809
 C,0,0.6031839027,-1.3242334337,0.0000313899
 C,0,1.6768786284,1.2303705909,-0.0000217434
 H,0,-0.3542159937,1.9344784302,-0.000080628
 C,0,1.9835235033,-1.1450274535,0.000047563
 H,0,0.1999616183,-2.3327350702,0.0000663559
 C,0,2.5717785266,0.1376921171,0.0000215956
 O,0,2.8127415926,-2.2180021693,0.0000970515
 H,0,2.289406149,-3.0305862165,0.0001150463
 O,0,2.2246293147,2.473360385,-0.0000466876
 H,0,1.519703028,3.1338227471,-0.0000689822
 C,0,4.0092188403,0.4181188761,0.0000421096
 H,0,4.2334089342,1.4803491084,0.00004651
 C,0,5.047616987,-0.439614166,0.0000528516
 H,0,4.8756693812,-1.5097660211,0.0000462072
 C,0,6.4551313759,-0.0203119804,0.0000730283
 C,0,7.420189496,-0.9520912963,0.0000832122
 H,0,7.1833916374,-2.0133542079,0.0000767181
 H,0,8.4732443552,-0.6842267225,0.0000981933
 C,0,6.7877520395,1.4503265002,0.0000822586
 H,0,6.3691510963,1.9503136734,-0.8812967863
 H,0,6.3691287144,1.9503077081,0.8814540545
 H,0,7.8693418512,1.6079557065,0.0000965588
 Recover connectivity data from disk.
                           ----------------------------
                           !    Current Parameters    !
                           ! (Angstroms and Degrees)  !
 --------------------------                            --------------------------
 ! Name  Definition              Value                                          !
 --------------------------------------------------------------------------------
 ! R1    R(1,2)                  1.4008                                         !
 ! R2    R(1,6)                  1.3994                                         !
 ! R3    R(1,7)                  1.4391                                         !
 ! R4    R(2,3)                  1.3865                                         !
 ! R5    R(2,15)                 1.3572                                         !
 ! R6    R(3,4)                  1.3922                                         !
 ! R7    R(3,9)                  1.0836                                         !
 ! R8    R(4,5)                  1.41                                           !
 ! R9    R(4,13)                 1.3598                                         !
 ! R10   R(5,6)                  1.3862                                         !
 ! R11   R(5,10)                 1.0868                                         !
 ! R12   R(6,11)                 1.0852                                         !
 ! R13   R(7,8)                  1.3583                                         !
 ! R14   R(7,12)                 1.0805                                         !
 ! R15   R(8,15)                 1.3778                                         !
 ! R16   R(8,16)                 1.4596                                         !
 ! R17   R(13,14)                0.9661                                         !
 ! R18   R(16,17)                1.3954                                         !
 ! R19   R(16,18)                1.3958                                         !
 ! R20   R(17,19)                1.3909                                         !
 ! R21   R(17,20)                1.085                                          !
 ! R22   R(18,21)                1.3919                                         !
 ! R23   R(18,22)                1.0861                                         !
 ! R24   R(19,23)                1.4124                                         !
 ! R25   R(19,26)                1.3583                                         !
 ! R26   R(21,23)                1.4112                                         !
 ! R27   R(21,24)                1.3561                                         !
 ! R28   R(23,28)                1.4645                                         !
 ! R29   R(24,25)                0.9665                                         !
 ! R30   R(26,27)                0.966                                          !
 ! R31   R(28,29)                1.0856                                         !
 ! R32   R(28,30)                1.3468                                         !
 ! R33   R(30,31)                1.0839                                         !
 ! R34   R(30,32)                1.4686                                         !
 ! R35   R(32,33)                1.3415                                         !
 ! R36   R(32,36)                1.5078                                         !
 ! R37   R(33,34)                1.0874                                         !
 ! R38   R(33,35)                1.0866                                         !
 ! R39   R(36,37)                1.0964                                         !
 ! R40   R(36,38)                1.0964                                         !
 ! R41   R(36,39)                1.093                                          !
 ! A1    A(2,1,6)              118.3946                                         !
 ! A2    A(2,1,7)              105.3707                                         !
 ! A3    A(6,1,7)              136.2347                                         !
 ! A4    A(1,2,3)              124.3015                                         !
 ! A5    A(1,2,15)             110.278                                          !
 ! A6    A(3,2,15)             125.4205                                         !
 ! A7    A(2,3,4)              116.0652                                         !
 ! A8    A(2,3,9)              122.6481                                         !
 ! A9    A(4,3,9)              121.2867                                         !
 ! A10   A(3,4,5)              121.3176                                         !
 ! A11   A(3,4,13)             116.9491                                         !
 ! A12   A(5,4,13)             121.7333                                         !
 ! A13   A(4,5,6)              121.0621                                         !
 ! A14   A(4,5,10)             119.1571                                         !
 ! A15   A(6,5,10)             119.7808                                         !
 ! A16   A(1,6,5)              118.8591                                         !
 ! A17   A(1,6,11)             120.9694                                         !
 ! A18   A(5,6,11)             120.1716                                         !
 ! A19   A(1,7,8)              106.4757                                         !
 ! A20   A(1,7,12)             126.9574                                         !
 ! A21   A(8,7,12)             126.5668                                         !
 ! A22   A(7,8,15)             111.0426                                         !
 ! A23   A(7,8,16)             132.8056                                         !
 ! A24   A(15,8,16)            116.1518                                         !
 ! A25   A(4,13,14)            109.6108                                         !
 ! A26   A(2,15,8)             106.8329                                         !
 ! A27   A(8,16,17)            120.3825                                         !
 ! A28   A(8,16,18)            120.2508                                         !
 ! A29   A(17,16,18)           119.3667                                         !
 ! A30   A(16,17,19)           119.7925                                         !
 ! A31   A(16,17,20)           120.2107                                         !
 ! A32   A(19,17,20)           119.9967                                         !
 ! A33   A(16,18,21)           120.2454                                         !
 ! A34   A(16,18,22)           120.5647                                         !
 ! A35   A(21,18,22)           119.1899                                         !
 ! A36   A(17,19,23)           122.5155                                         !
 ! A37   A(17,19,26)           120.5836                                         !
 ! A38   A(23,19,26)           116.9009                                         !
 ! A39   A(18,21,23)           122.0334                                         !
 ! A40   A(18,21,24)           120.3004                                         !
 ! A41   A(23,21,24)           117.6662                                         !
 ! A42   A(19,23,21)           116.0465                                         !
 ! A43   A(19,23,28)           118.2783                                         !
 ! A44   A(21,23,28)           125.6752                                         !
 ! A45   A(21,24,25)           109.5193                                         !
 ! A46   A(19,26,27)           109.3531                                         !
 ! A47   A(23,28,29)           112.9568                                         !
 ! A48   A(23,28,30)           129.4037                                         !
 ! A49   A(29,28,30)           117.6395                                         !
 ! A50   A(28,30,31)           120.4292                                         !
 ! A51   A(28,30,32)           123.8538                                         !
 ! A52   A(31,30,32)           115.717                                          !
 ! A53   A(30,32,33)           119.4162                                         !
 ! A54   A(30,32,36)           119.3333                                         !
 ! A55   A(33,32,36)           121.2505                                         !
 ! A56   A(32,33,34)           121.4166                                         !
 ! A57   A(32,33,35)           121.7335                                         !
 ! A58   A(34,33,35)           116.8499                                         !
 ! A59   A(32,36,37)           111.1351                                         !
 ! A60   A(32,36,38)           111.1352                                         !
 ! A61   A(32,36,39)           111.0362                                         !
 ! A62   A(37,36,38)           107.0079                                         !
 ! A63   A(37,36,39)           108.1832                                         !
 ! A64   A(38,36,39)           108.1832                                         !
 ! D1    D(6,1,2,3)              0.0001                                         !
 ! D2    D(6,1,2,15)          -180.0                                            !
 ! D3    D(7,1,2,3)           -180.0                                            !
 ! D4    D(7,1,2,15)            -0.0001                                         !
 ! D5    D(2,1,6,5)             -0.0001                                         !
 ! D6    D(2,1,6,11)           179.9999                                         !
 ! D7    D(7,1,6,5)           -179.9999                                         !
 ! D8    D(7,1,6,11)             0.0001                                         !
 ! D9    D(2,1,7,8)              0.0001                                         !
 ! D10   D(2,1,7,12)          -179.9993                                         !
 ! D11   D(6,1,7,8)            180.0                                            !
 ! D12   D(6,1,7,12)             0.0006                                         !
 ! D13   D(1,2,3,4)             -0.0001                                         !
 ! D14   D(1,2,3,9)            179.9999                                         !
 ! D15   D(15,2,3,4)          -180.0                                            !
 ! D16   D(15,2,3,9)             0.0001                                         !
 ! D17   D(1,2,15,8)             0.0                                            !
 ! D18   D(3,2,15,8)           179.9999                                         !
 ! D19   D(2,3,4,5)              0.0                                            !
 ! D20   D(2,3,4,13)           180.0                                            !
 ! D21   D(9,3,4,5)            180.0                                            !
 ! D22   D(9,3,4,13)             0.0                                            !
 ! D23   D(3,4,5,6)              0.0                                            !
 ! D24   D(3,4,5,10)          -179.9999                                         !
 ! D25   D(13,4,5,6)          -180.0                                            !
 ! D26   D(13,4,5,10)            0.0001                                         !
 ! D27   D(3,4,13,14)          179.9999                                         !
 ! D28   D(5,4,13,14)           -0.0002                                         !
 ! D29   D(4,5,6,1)              0.0                                            !
 ! D30   D(4,5,6,11)           180.0                                            !
 ! D31   D(10,5,6,1)           180.0                                            !
 ! D32   D(10,5,6,11)           -0.0001                                         !
 ! D33   D(1,7,8,15)            -0.0001                                         !
 ! D34   D(1,7,8,16)          -179.9994                                         !
 ! D35   D(12,7,8,15)          179.9993                                         !
 ! D36   D(12,7,8,16)            0.0                                            !
 ! D37   D(7,8,15,2)             0.0001                                         !
 ! D38   D(16,8,15,2)          179.9995                                         !
 ! D39   D(7,8,16,17)          179.9914                                         !
 ! D40   D(7,8,16,18)           -0.0083                                         !
 ! D41   D(15,8,16,17)          -0.0078                                         !
 ! D42   D(15,8,16,18)         179.9925                                         !
 ! D43   D(8,16,17,19)        -179.9996                                         !
 ! D44   D(8,16,17,20)           0.0003                                         !
 ! D45   D(18,16,17,19)          0.0002                                         !
 ! D46   D(18,16,17,20)       -180.0                                            !
 ! D47   D(8,16,18,21)         179.9994                                         !
 ! D48   D(8,16,18,22)          -0.0012                                         !
 ! D49   D(17,16,18,21)         -0.0004                                         !
 ! D50   D(17,16,18,22)        179.9991                                         !
 ! D51   D(16,17,19,23)          0.0001                                         !
 ! D52   D(16,17,19,26)        179.9999                                         !
 ! D53   D(20,17,19,23)       -179.9997                                         !
 ! D54   D(20,17,19,26)          0.0001                                         !
 ! D55   D(16,18,21,23)          0.0003                                         !
 ! D56   D(16,18,21,24)        179.9999                                         !
 ! D57   D(22,18,21,23)       -179.9992                                         !
 ! D58   D(22,18,21,24)          0.0005                                         !
 ! D59   D(17,19,23,21)         -0.0002                                         !
 ! D60   D(17,19,23,28)       -179.9999                                         !
 ! D61   D(26,19,23,21)        180.0                                            !
 ! D62   D(26,19,23,28)          0.0003                                         !
 ! D63   D(17,19,26,27)          0.0006                                         !
 ! D64   D(23,19,26,27)       -179.9996                                         !
 ! D65   D(18,21,23,19)          0.0                                            !
 ! D66   D(18,21,23,28)        179.9997                                         !
 ! D67   D(24,21,23,19)       -179.9996                                         !
 ! D68   D(24,21,23,28)          0.0001                                         !
 ! D69   D(18,21,24,25)          0.0001                                         !
 ! D70   D(23,21,24,25)        179.9997                                         !
 ! D71   D(19,23,28,29)          0.0015                                         !
 ! D72   D(19,23,28,30)       -179.9984                                         !
 ! D73   D(21,23,28,29)       -179.9982                                         !
 ! D74   D(21,23,28,30)          0.0019                                         !
 ! D75   D(23,28,30,31)          0.0                                            !
 ! D76   D(23,28,30,32)        180.0                                            !
 ! D77   D(29,28,30,31)       -179.9998                                         !
 ! D78   D(29,28,30,32)          0.0001                                         !
 ! D79   D(28,30,32,33)        180.0                                            !
 ! D80   D(28,30,32,36)          0.0                                            !
 ! D81   D(31,30,32,33)         -0.0001                                         !
 ! D82   D(31,30,32,36)        179.9999                                         !
 ! D83   D(30,32,33,34)          0.0                                            !
 ! D84   D(30,32,33,35)       -180.0                                            !
 ! D85   D(36,32,33,34)        180.0                                            !
 ! D86   D(36,32,33,35)          0.0                                            !
 ! D87   D(30,32,36,37)        -59.5276                                         !
 ! D88   D(30,32,36,38)         59.5277                                         !
 ! D89   D(30,32,36,39)       -180.0                                            !
 ! D90   D(33,32,36,37)        120.4724                                         !
 ! D91   D(33,32,36,38)       -120.4723                                         !
 ! D92   D(33,32,36,39)          0.0001                                         !
 --------------------------------------------------------------------------------
                          Input orientation:                          
 ---------------------------------------------------------------------
 Center     Atomic      Atomic             Coordinates (Angstroms)
 Number     Number       Type             X           Y           Z
 ---------------------------------------------------------------------
      1          6           0       -3.845101   -1.046707   -0.000153
      2          6           0       -3.757942    0.351394    0.000002
      3          6           0       -4.852450    1.202487    0.000081
      4          6           0       -6.103077    0.590730   -0.000006
      5          6           0       -6.232135   -0.813392   -0.000164
      6          6           0       -5.115167   -1.634295   -0.000238
      7          6           0       -2.483857   -1.513773   -0.000185
      8          6           0       -1.696730   -0.406739   -0.000049
      9          1           0       -4.753847    2.281642    0.000202
     10          1           0       -7.225712   -1.253800   -0.000229
     11          1           0       -5.231281   -2.713307   -0.000359
     12          1           0       -2.149620   -2.541264   -0.000304
     13          8           0       -7.189260    1.408776    0.000069
     14          1           0       -7.995771    0.876892   -0.000004
     15          8           0       -2.458083    0.741637    0.000066
     16          6           0       -0.249302   -0.218961   -0.000018
     17          6           0        0.295730    1.065633   -0.000042
     18          6           0        0.603184   -1.324233    0.000031
     19          6           0        1.676879    1.230371   -0.000022
     20          1           0       -0.354216    1.934478   -0.000081
     21          6           0        1.983524   -1.145027    0.000048
     22          1           0        0.199962   -2.332735    0.000066
     23          6           0        2.571779    0.137692    0.000022
     24          8           0        2.812742   -2.218002    0.000097
     25          1           0        2.289406   -3.030586    0.000115
     26          8           0        2.224629    2.473360   -0.000047
     27          1           0        1.519703    3.133823   -0.000069
     28          6           0        4.009219    0.418119    0.000042
     29          1           0        4.233409    1.480349    0.000047
     30          6           0        5.047617   -0.439614    0.000053
     31          1           0        4.875669   -1.509766    0.000046
     32          6           0        6.455131   -0.020312    0.000073
     33          6           0        7.420189   -0.952091    0.000083
     34          1           0        7.183392   -2.013354    0.000077
     35          1           0        8.473244   -0.684227    0.000098
     36          6           0        6.787752    1.450327    0.000082
     37          1           0        6.369151    1.950314   -0.881297
     38          1           0        6.369129    1.950308    0.881454
     39          1           0        7.869342    1.607956    0.000097
 ---------------------------------------------------------------------
                    Distance matrix (angstroms):
                    1          2          3          4          5
     1  C    0.000000
     2  C    1.400815   0.000000
     3  C    2.464473   1.386473   0.000000
     4  C    2.789204   2.357316   1.392234   0.000000
     5  C    2.398410   2.734659   2.442806   1.410040   0.000000
     6  C    1.399403   2.405207   2.848922   2.434482   1.386182
     7  C    1.439144   2.258792   3.603929   4.186608   3.813151
     8  C    2.241663   2.196215   3.542341   4.517835   4.553599
     9  H    3.450177   2.172022   1.083649   2.163239   3.429951
    10  H    3.386948   3.821266   3.415511   2.159305   1.086809
    11  H    2.167729   3.400459   3.934076   3.417117   2.147414
    12  H    2.260168   3.309709   4.617464   5.043730   4.433112
    13  O    4.148831   3.590543   2.345898   1.359777   2.419529
    14  H    4.574745   4.270286   3.160139   1.914205   2.442840
    15  O    2.263182   1.357174   2.438314   3.648117   4.081861
    16  C    3.689842   3.554696   4.817623   5.909508   6.012291
    17  C    4.648490   4.116113   5.149998   6.416405   6.792919
    18  C    4.456934   4.671953   6.012342   6.974311   6.854382
    19  C    5.973051   5.505440   6.529388   7.806206   8.168810
    20  H    4.590615   3.753865   4.557403   5.903817   6.488507
    21  C    5.829453   5.933271   7.227818   8.270790   8.222349
    22  H    4.244573   4.782212   6.166414   6.948017   6.609105
    23  C    6.525269   6.333327   7.500197   8.686677   8.855137
    24  O    6.760089   7.055188   8.393742   9.347770   9.153291
    25  H    6.447321   6.928796   8.302109   9.140443   8.805261
    26  O    7.016587   6.347747   7.190283   8.537856   9.073015
    27  H    6.801320   5.966192   6.658407   8.035801   8.698937
    28  C    7.989747   7.767447   8.896314  10.113769  10.315132
    29  H    8.464534   8.070702   9.090107  10.374698  10.713956
    30  C    8.913416   8.841016  10.035329  11.198195  11.285943
    31  H    8.733055   8.831940  10.099140  11.177878  11.129612
    32  C   10.351245  10.219835  11.373506  12.573065  12.712030
    33  C   11.265688  11.253875  12.460333  13.610989  13.653029
    34  H   11.070775  11.193963  12.458054  13.539258  13.469086
    35  H   12.323677  12.274951  13.458596  14.631974  14.705947
    36  C   10.922121  10.602797  11.642840  12.919457  13.215214
    37  H   10.681268  10.290347  11.280975  12.577027  12.930850
    38  H   10.681283  10.290337  11.280952  12.577016  12.930860
    39  H   12.011469  11.694985  12.728252  14.009398  14.307850
                    6          7          8          9         10
     6  C    0.000000
     7  C    2.634069   0.000000
     8  C    3.632162   1.358342   0.000000
     9  H    3.932570   4.422446   4.071038   0.000000
    10  H    2.144569   4.748976   5.593491   4.313869   0.000000
    11  H    1.085242   2.997869   4.220581   5.017714   2.471419
    12  H    3.101140   1.080487   2.182042   5.481097   5.236819
    13  O    3.682682   5.539144   5.784806   2.587109   2.662826
    14  H    3.821510   6.008034   6.428501   3.533185   2.265577
    15  O    3.564428   2.255557   1.377834   2.764443   5.168370
    16  C    5.067526   2.582592   1.459558   5.152081   7.052743
    17  C    6.047100   3.792024   2.477454   5.193929   7.870950
    18  C    5.726751   3.092854   2.476167   6.457562   7.829212
    19  C    7.371445   4.984180   3.749849   6.516088   9.242685
    20  H    5.950025   4.052877   2.698823   4.413306   7.575128
    21  C    7.115532   4.482573   3.753577   7.558718   9.209878
    22  H    5.360822   2.805990   2.703128   6.769984   7.503647
    23  C    7.888541   5.318533   4.303089   7.632909   9.895810
    24  O    7.949368   5.343210   4.859631   8.803411  10.084653
    25  H    7.535074   5.008469   4.772196   8.821971   9.679589
    26  O    8.411031   6.169853   4.865392   6.981109  10.158773
    27  H    8.170462   6.134219   4.783411   6.331164   9.784350
    28  C    9.352370   6.774382   5.765262   8.959020  11.358652
    29  H    9.853775   7.354348   6.223155   9.022906  11.780790
    30  C   10.232763   7.607688   6.744427  10.172213  12.300305
    31  H    9.991613   7.359528   6.664316  10.349027  12.104088
    32  C   11.682326   9.062888   8.161016  11.442910  13.736337
    33  C   12.553907   9.919961   9.133216  12.596197  14.649008
    34  H   12.304399   9.680149   9.024288  12.686396  14.429109
    35  H   13.621584  10.988459  10.173760  13.555527  15.709285
    36  C   12.296112   9.733891   8.685340  11.571499  14.271982
    37  H   12.062970   9.547356   8.449304  11.162791  13.995103
    38  H   12.062993   9.547382   8.449308  11.162749  13.995119
    39  H   13.383186  10.813599   9.775926  12.641153  15.363928
                   11         12         13         14         15
    11  H    0.000000
    12  H    3.086460   0.000000
    13  O    4.563469   6.403187   0.000000
    14  H    4.531217   6.772095   0.966106   0.000000
    15  O    4.430267   3.297361   4.777982   5.539340   0.000000
    16  C    5.571524   3.000717   7.128292   7.823598   2.408622
    17  C    6.695389   4.357688   7.492851   8.293648   2.772807
    18  C    5.997542   3.009832   8.257816   8.876203   3.693125
    19  C    7.954575   5.372832   8.867933   9.679106   4.163744
    20  H    6.737037   4.822421   6.855231   7.714393   2.418497
    21  C    7.383286   4.362608   9.521653  10.182066   4.825699
    22  H    5.444560   2.358817   8.282482   8.801803   4.064107
    23  C    8.307583   5.428481   9.843451  10.593371   5.065990
    24  O    8.059257   4.972879  10.639246  11.242878   6.044920
    25  H    7.527377   4.465914  10.466759  11.002420   6.063688
    26  O    9.082517   6.654361   9.473893  10.344336   4.992661
    27  H    8.931109   6.757998   8.878165   9.779467   4.641695
    28  C    9.756673   6.832953  11.242212  12.013753   6.475388
    29  H   10.352155   7.544298  11.422893  12.244060   6.732144
    30  C   10.527365   7.497810  12.375690  13.109659   7.598084
    31  H   10.178357   7.100611  12.412913  13.090841   7.671554
    32  C   11.992683   8.966434  13.719027  14.478728   8.945723
    33  C   12.773472   9.700862  14.798977  15.524079  10.022424
    34  H   12.434389   9.347930  14.774441  15.451877  10.027363
    35  H   13.853923  10.783962  15.801731  16.542840  11.023928
    36  C   12.719788   9.788228  13.977074  14.794640   9.272955
    37  H   12.533772   9.670568  13.597815  14.431905   8.953086
    38  H   12.533810   9.670615  13.597794  14.431893   8.953066
    39  H   13.794913  10.844151  15.059919  15.881948  10.363697
                   16         17         18         19         20
    16  C    0.000000
    17  C    1.395436   0.000000
    18  C    1.395836   2.409563   0.000000
    19  C    2.410546   1.390939   2.771069   0.000000
    20  H    2.155993   1.085044   3.396442   2.149677   0.000000
    21  C    2.417252   2.781307   1.391924   2.395109   3.866314
    22  H    2.160990   3.399718   1.086123   3.857072   4.303048
    23  C    2.843536   2.457941   2.452059   1.412371   3.433640
    24  O    3.656812   4.137344   2.383478   3.630628   5.222329
    25  H    3.788176   4.555630   2.398955   4.304758   5.624998
    26  O    3.656354   2.387959   4.129262   1.358328   2.634547
    27  H    3.790849   2.403231   4.551293   1.909930   2.224859
    28  C    4.305911   3.769519   3.825816   2.469729   4.619406
    29  H    4.793991   3.959458   4.587398   2.568723   4.610047
    30  C    5.301512   4.984597   4.531615   3.761745   5.900518
    31  H    5.285027   5.254382   4.276512   4.211960   6.262150
    32  C    6.707375   6.254399   5.995457   4.939221   7.084378
    33  C    7.704452   7.404670   6.827156   6.144002   8.292989
    34  H    7.646226   7.544538   6.616194   6.390887   8.508873
    35  H    8.734946   8.362641   7.896041   7.060897   9.207696
    36  C    7.232333   6.503410   6.778427   5.115604   7.158359
    37  H    7.020422   6.200461   6.689228   4.828290   6.780889
    38  H    7.020423   6.200473   6.689219   4.828304   6.780908
    39  H    8.321658   7.593004   7.835482   6.203964   8.230038
                   21         22         23         24         25
    21  C    0.000000
    22  H    2.142835   0.000000
    23  C    1.411175   3.424694   0.000000
    24  O    1.356052   2.615298   2.367986   0.000000
    25  H    1.910208   2.202901   3.180837   0.966526   0.000000
    26  O    3.626412   5.215154   2.361326   4.728082   5.504328
    27  H    4.303915   5.623608   3.175478   5.505813   6.212277
    28  C    2.558685   4.698685   1.464539   2.894942   3.853741
    29  H    3.457541   5.550523   2.136292   3.961830   4.911994
    30  C    3.144245   5.204197   2.542255   2.856104   3.784292
    31  H    2.915054   4.747581   2.832319   2.181117   3.000275
    32  C    4.610885   6.668917   3.886566   4.254039   5.139554
    33  C    5.440088   7.351045   4.969378   4.778191   5.535800
    34  H    5.271871   6.990730   5.088612   4.375439   4.998585
    35  H    6.506060   8.435922   5.958427   5.864619   6.614020
    36  C    5.460446   7.596745   4.415591   5.409006   6.349307
    37  H    5.439819   7.561759   4.299111   5.549753   6.498505
    38  H    5.439808   7.561741   4.299112   5.549729   6.498477
    39  H    6.497828   8.622554   5.497804   6.340912   7.256153
                   26         27         28         29         30
    26  O    0.000000
    27  H    0.965987   0.000000
    28  C    2.721907   3.684120   0.000000
    29  H    2.240818   3.177763   1.085631   0.000000
    30  C    4.056437   5.021517   1.346840   2.085472   0.000000
    31  H    4.784695   5.729348   2.113641   3.058314   1.083878
    32  C    4.910759   5.857219   2.484896   2.681051   1.468643
    33  C    6.223148   7.177077   3.675894   4.009032   2.427289
    34  H    6.687296   7.653156   3.998429   4.572566   2.652959
    35  H    7.001110   7.932795   4.598118   4.760419   3.434350
    36  C    4.676397   5.530506   2.964068   2.554520   2.569036
    37  H    4.269337   5.068965   2.948501   2.357759   2.869666
    38  H    4.269368   5.068996   2.948502   2.357762   2.869667
    39  H    5.710666   6.530405   4.039339   3.638171   3.486355
                   31         32         33         34         35
    31  H    0.000000
    32  C    2.170984   0.000000
    33  C    2.604915   1.341473   0.000000
    34  H    2.362029   2.121928   1.087360   0.000000
    35  H    3.691079   2.124515   1.086589   1.852107   0.000000
    36  C    3.523948   1.507784   2.484268   3.486203   2.719780
    37  H    3.870324   2.160456   3.210213   4.141313   3.484949
    38  H    3.870324   2.160456   3.210212   4.141312   3.484948
    39  H    4.322298   2.156675   2.599150   3.685704   2.370400
                   36         37         38         39
    36  C    0.000000
    37  H    1.096377   0.000000
    38  H    1.096377   1.762751   0.000000
    39  H    1.093016   1.773312   1.773312   0.000000
 Stoichiometry    C19H16O4
 Framework group  C1[X(C19H16O4)]
 Deg. of freedom   111
 Full point group                 C1      NOp   1
 Largest Abelian subgroup         C1      NOp   1
 Largest concise Abelian subgroup C1      NOp   1
                         Standard orientation:                         
 ---------------------------------------------------------------------
 Center     Atomic      Atomic             Coordinates (Angstroms)
 Number     Number       Type             X           Y           Z
 ---------------------------------------------------------------------
      1          6           0       -3.844372   -1.046577   -0.000148
      2          6           0       -3.757227    0.351525    0.000007
      3          6           0       -4.851744    1.202607    0.000086
      4          6           0       -6.102365    0.590837   -0.000001
      5          6           0       -6.231409   -0.813286   -0.000159
      6          6           0       -5.114432   -1.634178   -0.000233
      7          6           0       -2.483123   -1.513629   -0.000180
      8          6           0       -1.696008   -0.406587   -0.000044
      9          1           0       -4.753152    2.281762    0.000207
     10          1           0       -7.224980   -1.253705   -0.000224
     11          1           0       -5.230535   -2.713191   -0.000354
     12          1           0       -2.148875   -2.541117   -0.000299
     13          8           0       -7.188556    1.408872    0.000074
     14          1           0       -7.995062    0.876979    0.000001
     15          8           0       -2.457372    0.741781    0.000071
     16          6           0       -0.248581   -0.218794   -0.000013
     17          6           0        0.296437    1.065806   -0.000037
     18          6           0        0.603916   -1.324058    0.000036
     19          6           0        1.677584    1.230557   -0.000017
     20          1           0       -0.353518    1.934644   -0.000076
     21          6           0        1.984254   -1.144838    0.000053
     22          1           0        0.200704   -2.332564    0.000071
     23          6           0        2.572495    0.137888    0.000027
     24          8           0        2.813483   -2.217804    0.000102
     25          1           0        2.290156   -3.030393    0.000120
     26          8           0        2.225322    2.473553   -0.000042
     27          1           0        1.520389    3.134008   -0.000064
     28          6           0        4.009933    0.418330    0.000047
     29          1           0        4.234112    1.480562    0.000052
     30          6           0        5.048340   -0.439393    0.000058
     31          1           0        4.876403   -1.509546    0.000051
     32          6           0        6.455850   -0.020076    0.000078
     33          6           0        7.420918   -0.951845    0.000088
     34          1           0        7.184131   -2.013111    0.000082
     35          1           0        8.473970   -0.683970    0.000103
     36          6           0        6.788455    1.450566    0.000087
     37          1           0        6.369849    1.950549   -0.881292
     38          1           0        6.369827    1.950543    0.881459
     39          1           0        7.870044    1.608206    0.000102
 ---------------------------------------------------------------------
 Rotational constants (GHZ):           1.0039796           0.0847473           0.0781884
 Standard basis: 6-311++G(d,p) (5D, 7F)
 There are   641 symmetry adapted cartesian basis functions of A   symmetry.
 There are   618 symmetry adapted basis functions of A   symmetry.
   618 basis functions,   972 primitive gaussians,   641 cartesian basis functions
    81 alpha electrons       81 beta electrons
       nuclear repulsion energy      1706.1518933518 Hartrees.
 NAtoms=   39 NActive=   39 NUniq=   39 SFac= 1.00D+00 NAtFMM=   60 NAOKFM=F Big=F
 Integral buffers will be    131072 words long.
 Raffenetti 2 integral format.
 Two-electron integral symmetry is turned on.
 Nuclear repulsion after empirical dispersion term =     1706.1276665502 Hartrees.
 Using the following non-standard input for PCM:
 --- end of non-standard input.
 ------------------------------------------------------------------------------
 Polarizable Continuum Model (PCM)
 =================================
 Model                : C-PCM.
 Atomic radii         : UFF (Universal Force Field).
 Polarization charges : Total charges.
 Charge compensation  : None.
 Solution method      : On-the-fly selection.
 Cavity type          : Scaled VdW (van der Waals Surface) (Alpha=1.100).
 Cavity algorithm     : GePol (No added spheres)
                        Default sphere list used, NSphG=   39.
                        Lebedev-Laikov grids with approx.  5.0 points / Ang**2.
                        Smoothing algorithm: York/Karplus (Gamma=1.0000).
                        Polarization charges: spherical gaussians, with
                                              point-specific exponents (IZeta= 3).
                        Self-potential: point-specific (ISelfS= 7).
                        Self-field    : sphere-specific E.n sum rule (ISelfD= 2).
 Solvent              : Water, Eps=  78.355300 Eps(inf)=   1.777849
 ------------------------------------------------------------------------------
 One-electron integrals computed using PRISM.
 NBasis=   618 RedAO= T EigKep=  1.01D-06  NBF=   618
 NBsUse=   609 1.00D-06 EigRej=  9.28D-07 NBFU=   609
 Initial guess from the checkpoint file:  "MaDA-4-conf-1.chk"
 B after Tr=    -0.000000    0.000000    0.000000
         Rot=    1.000000    0.000000   -0.000000   -0.000000 Ang=   0.00 deg.
 Requested convergence on RMS density matrix=1.00D-08 within 128 cycles.
 Requested convergence on MAX density matrix=1.00D-06.
 Requested convergence on             energy=1.00D-06.
 No special actions if energy rises.
 Inv3:  Mode=1 IEnd=    27743043.
 Iteration    1 A*A^-1 deviation from unit magnitude is 3.22D-15 for   1112.
 Iteration    1 A*A^-1 deviation from orthogonality  is 2.59D-15 for   2914   2164.
 Iteration    1 A^-1*A deviation from unit magnitude is 3.00D-15 for   1112.
 Iteration    1 A^-1*A deviation from orthogonality  is 2.57D-15 for    551    483.
 Error on total polarization charges =  0.01946
 SCF Done:  E(RwB97XD) =  -1034.46415398     A.U. after   15 cycles
            NFock= 15  Conv=0.66D-08     -V/T= 2.0040

 **********************************************************************

            Population analysis using the SCF density.

 **********************************************************************

 Orbital symmetries:
       Occupied  (A) (A) (A) (A) (A) (A) (A) (A) (A) (A) (A) (A)
                 (A) (A) (A) (A) (A) (A) (A) (A) (A) (A) (A) (A)
                 (A) (A) (A) (A) (A) (A) (A) (A) (A) (A) (A) (A)
                 (A) (A) (A) (A) (A) (A) (A) (A) (A) (A) (A) (A)
                 (A) (A) (A) (A) (A) (A) (A) (A) (A) (A) (A) (A)
                 (A) (A) (A) (A) (A) (A) (A) (A) (A) (A) (A) (A)
                 (A) (A) (A) (A) (A) (A) (A) (A) (A)
       Virtual   (A) (A) (A) (A) (A) (A) (A) (A) (A) (A) (A) (A)
                 (A) (A) (A) (A) (A) (A) (A) (A) (A) (A) (A) (A)
                 (A) (A) (A) (A) (A) (A) (A) (A) (A) (A) (A) (A)
                 (A) (A) (A) (A) (A) (A) (A) (A) (A) (A) (A) (A)
                 (A) (A) (A) (A) (A) (A) (A) (A) (A) (A) (A) (A)
                 (A) (A) (A) (A) (A) (A) (A) (A) (A) (A) (A) (A)
                 (A) (A) (A) (A) (A) (A) (A) (A) (A) (A) (A) (A)
                 (A) (A) (A) (A) (A) (A) (A) (A) (A) (A) (A) (A)
                 (A) (A) (A) (A) (A) (A) (A) (A) (A) (A) (A) (A)
                 (A) (A) (A) (A) (A) (A) (A) (A) (A) (A) (A) (A)
                 (A) (A) (A) (A) (A) (A) (A) (A) (A) (A) (A) (A)
                 (A) (A) (A) (A) (A) (A) (A) (A) (A) (A) (A) (A)
                 (A) (A) (A) (A) (A) (A) (A) (A) (A) (A) (A) (A)
                 (A) (A) (A) (A) (A) (A) (A) (A) (A) (A) (A) (A)
                 (A) (A) (A) (A) (A) (A) (A) (A) (A) (A) (A) (A)
                 (A) (A) (A) (A) (A) (A) (A) (A) (A) (A) (A) (A)
                 (A) (A) (A) (A) (A) (A) (A) (A) (A) (A) (A) (A)
                 (A) (A) (A) (A) (A) (A) (A) (A) (A) (A) (A) (A)
                 (A) (A) (A) (A) (A) (A) (A) (A) (A) (A) (A) (A)
                 (A) (A) (A) (A) (A) (A) (A) (A) (A) (A) (A) (A)
                 (A) (A) (A) (A) (A) (A) (A) (A) (A) (A) (A) (A)
                 (A) (A) (A) (A) (A) (A) (A) (A) (A) (A) (A) (A)
                 (A) (A) (A) (A) (A) (A) (A) (A) (A) (A) (A) (A)
                 (A) (A) (A) (A) (A) (A) (A) (A) (A) (A) (A) (A)
                 (A) (A) (A) (A) (A) (A) (A) (A) (A) (A) (A) (A)
                 (A) (A) (A) (A) (A) (A) (A) (A) (A) (A) (A) (A)
                 (A) (A) (A) (A) (A) (A) (A) (A) (A) (A) (A) (A)
                 (A) (A) (A) (A) (A) (A) (A) (A) (A) (A) (A) (A)
                 (A) (A) (A) (A) (A) (A) (A) (A) (A) (A) (A) (A)
                 (A) (A) (A) (A) (A) (A) (A) (A) (A) (A) (A) (A)
                 (A) (A) (A) (A) (A) (A) (A) (A) (A) (A) (A) (A)
                 (A) (A) (A) (A) (A) (A) (A) (A) (A) (A) (A) (A)
                 (A) (A) (A) (A) (A) (A) (A) (A) (A) (A) (A) (A)
                 (A) (A) (A) (A) (A) (A) (A) (A) (A) (A) (A) (A)
                 (A) (A) (A) (A) (A) (A) (A) (A) (A) (A) (A) (A)
                 (A) (A) (A) (A) (A) (A) (A) (A) (A) (A) (A) (A)
                 (A) (A) (A) (A) (A) (A) (A) (A) (A) (A) (A) (A)
                 (A) (A) (A) (A) (A) (A) (A) (A) (A) (A) (A) (A)
                 (A) (A) (A) (A) (A) (A) (A) (A) (A) (A) (A) (A)
                 (A) (A) (A) (A) (A) (A) (A) (A) (A) (A) (A) (A)
                 (A) (A) (A) (A) (A) (A) (A) (A) (A) (A) (A) (A)
                 (A) (A) (A) (A) (A) (A) (A) (A) (A) (A) (A) (A)
                 (A) (A) (A) (A) (A) (A) (A) (A) (A) (A) (A) (A)
                 (A) (A) (A) (A) (A) (A) (A) (A) (A) (A) (A) (A)
 The electronic state is 1-A.
 Alpha  occ. eigenvalues --  -19.32397 -19.29347 -19.29191 -19.28915 -10.36966
 Alpha  occ. eigenvalues --  -10.36809 -10.36562 -10.36203 -10.35813 -10.32489
 Alpha  occ. eigenvalues --  -10.30752 -10.30644 -10.30328 -10.30242 -10.29935
 Alpha  occ. eigenvalues --  -10.29793 -10.29714 -10.29541 -10.29506 -10.29372
 Alpha  occ. eigenvalues --  -10.28819 -10.27832 -10.27724  -1.23137  -1.18612
 Alpha  occ. eigenvalues --   -1.18323  -1.17918  -0.97946  -0.97094  -0.93434
 Alpha  occ. eigenvalues --   -0.91829  -0.89565  -0.86582  -0.85061  -0.84893
 Alpha  occ. eigenvalues --   -0.81907  -0.78975  -0.75938  -0.75497  -0.73028
 Alpha  occ. eigenvalues --   -0.71021  -0.69995  -0.67832  -0.67150  -0.64452
 Alpha  occ. eigenvalues --   -0.63028  -0.61714  -0.60029  -0.59183  -0.58106
 Alpha  occ. eigenvalues --   -0.57187  -0.57059  -0.56051  -0.55060  -0.54142
 Alpha  occ. eigenvalues --   -0.53544  -0.53316  -0.52604  -0.51109  -0.50602
 Alpha  occ. eigenvalues --   -0.50484  -0.49848  -0.49606  -0.48619  -0.47959
 Alpha  occ. eigenvalues --   -0.47723  -0.46678  -0.46183  -0.45099  -0.44811
 Alpha  occ. eigenvalues --   -0.44196  -0.43560  -0.42802  -0.41156  -0.41039
 Alpha  occ. eigenvalues --   -0.37891  -0.35295  -0.33065  -0.31111  -0.30218
 Alpha  occ. eigenvalues --   -0.26753
 Alpha virt. eigenvalues --   -0.01226   0.03617   0.03863   0.04442   0.04919
 Alpha virt. eigenvalues --    0.05115   0.05569   0.05737   0.06166   0.06324
 Alpha virt. eigenvalues --    0.06758   0.07528   0.07702   0.07983   0.08344
 Alpha virt. eigenvalues --    0.08527   0.09362   0.09887   0.10152   0.10689
 Alpha virt. eigenvalues --    0.11095   0.11286   0.11809   0.11869   0.12612
 Alpha virt. eigenvalues --    0.12890   0.13358   0.13719   0.13962   0.14464
 Alpha virt. eigenvalues --    0.14644   0.15118   0.15240   0.15587   0.15707
 Alpha virt. eigenvalues --    0.15946   0.16146   0.16727   0.17154   0.17241
 Alpha virt. eigenvalues --    0.17376   0.17535   0.17667   0.18133   0.18350
 Alpha virt. eigenvalues --    0.18566   0.18767   0.18951   0.18993   0.19397
 Alpha virt. eigenvalues --    0.19743   0.19893   0.20014   0.20176   0.20383
 Alpha virt. eigenvalues --    0.21257   0.21624   0.21949   0.22299   0.22558
 Alpha virt. eigenvalues --    0.23117   0.23319   0.23348   0.24074   0.24187
 Alpha virt. eigenvalues --    0.24269   0.24667   0.24778   0.25050   0.25285
 Alpha virt. eigenvalues --    0.25679   0.25836   0.26087   0.26209   0.26498
 Alpha virt. eigenvalues --    0.26869   0.27089   0.27554   0.27953   0.28136
 Alpha virt. eigenvalues --    0.28829   0.28948   0.29089   0.29480   0.29684
 Alpha virt. eigenvalues --    0.30070   0.30449   0.30911   0.31539   0.31786
 Alpha virt. eigenvalues --    0.32248   0.32600   0.32912   0.33335   0.33742
 Alpha virt. eigenvalues --    0.34010   0.34293   0.34556   0.34742   0.35039
 Alpha virt. eigenvalues --    0.35330   0.35385   0.35610   0.36251   0.36490
 Alpha virt. eigenvalues --    0.36638   0.36748   0.37397   0.37608   0.37846
 Alpha virt. eigenvalues --    0.38110   0.38711   0.39019   0.39395   0.39926
 Alpha virt. eigenvalues --    0.40718   0.41134   0.41477   0.41880   0.42095
 Alpha virt. eigenvalues --    0.42532   0.43789   0.44199   0.44773   0.44843
 Alpha virt. eigenvalues --    0.45255   0.45724   0.45977   0.46889   0.47348
 Alpha virt. eigenvalues --    0.48062   0.48749   0.48847   0.50026   0.50619
 Alpha virt. eigenvalues --    0.50967   0.51436   0.52194   0.52863   0.53007
 Alpha virt. eigenvalues --    0.53661   0.54812   0.55879   0.56663   0.57862
 Alpha virt. eigenvalues --    0.58871   0.60067   0.60177   0.61142   0.61404
 Alpha virt. eigenvalues --    0.62448   0.62646   0.63024   0.63262   0.63419
 Alpha virt. eigenvalues --    0.63854   0.64810   0.65134   0.65535   0.65719
 Alpha virt. eigenvalues --    0.65749   0.66107   0.67655   0.67817   0.68301
 Alpha virt. eigenvalues --    0.69111   0.69138   0.69752   0.70293   0.70926
 Alpha virt. eigenvalues --    0.71023   0.71471   0.72470   0.73270   0.73365
 Alpha virt. eigenvalues --    0.74129   0.74529   0.74784   0.75328   0.75599
 Alpha virt. eigenvalues --    0.76371   0.77019   0.77645   0.78203   0.78391
 Alpha virt. eigenvalues --    0.79740   0.79899   0.80356   0.80774   0.81482
 Alpha virt. eigenvalues --    0.81627   0.82594   0.83511   0.84071   0.84942
 Alpha virt. eigenvalues --    0.86113   0.86818   0.87077   0.88023   0.88745
 Alpha virt. eigenvalues --    0.89254   0.90474   0.91292   0.92494   0.93381
 Alpha virt. eigenvalues --    0.94217   0.94770   0.95253   0.96758   0.97037
 Alpha virt. eigenvalues --    0.97680   0.98120   0.99342   0.99870   0.99946
 Alpha virt. eigenvalues --    1.00947   1.01465   1.02132   1.02134   1.02963
 Alpha virt. eigenvalues --    1.03478   1.04238   1.04577   1.04683   1.05739
 Alpha virt. eigenvalues --    1.06528   1.06714   1.07851   1.07871   1.08811
 Alpha virt. eigenvalues --    1.09400   1.10169   1.11337   1.11650   1.12844
 Alpha virt. eigenvalues --    1.13012   1.13062   1.13415   1.13769   1.14682
 Alpha virt. eigenvalues --    1.15362   1.15970   1.16592   1.17661   1.17785
 Alpha virt. eigenvalues --    1.18624   1.19081   1.19356   1.19933   1.20256
 Alpha virt. eigenvalues --    1.21326   1.21540   1.24444   1.25499   1.25852
 Alpha virt. eigenvalues --    1.26986   1.29909   1.29963   1.31157   1.32027
 Alpha virt. eigenvalues --    1.32150   1.33078   1.35051   1.37586   1.38509
 Alpha virt. eigenvalues --    1.39588   1.41059   1.41512   1.44044   1.46442
 Alpha virt. eigenvalues --    1.47332   1.48360   1.48736   1.48890   1.49317
 Alpha virt. eigenvalues --    1.49343   1.53544   1.54116   1.54436   1.54946
 Alpha virt. eigenvalues --    1.55882   1.58373   1.59320   1.59723   1.61353
 Alpha virt. eigenvalues --    1.61787   1.62754   1.63063   1.63499   1.64327
 Alpha virt. eigenvalues --    1.65299   1.65734   1.66981   1.67084   1.67521
 Alpha virt. eigenvalues --    1.68137   1.68615   1.68770   1.68978   1.71637
 Alpha virt. eigenvalues --    1.74200   1.74303   1.74423   1.75333   1.75907
 Alpha virt. eigenvalues --    1.77602   1.78193   1.79183   1.79802   1.82316
 Alpha virt. eigenvalues --    1.83289   1.83534   1.84286   1.85111   1.86171
 Alpha virt. eigenvalues --    1.87055   1.87993   1.89962   1.90398   1.91367
 Alpha virt. eigenvalues --    1.92782   1.93524   1.94074   1.94204   1.94922
 Alpha virt. eigenvalues --    1.95307   1.96708   1.97089   1.97144   1.99182
 Alpha virt. eigenvalues --    1.99537   2.00586   2.01718   2.02411   2.02872
 Alpha virt. eigenvalues --    2.05710   2.05777   2.06539   2.08253   2.08716
 Alpha virt. eigenvalues --    2.09728   2.10442   2.10644   2.11131   2.11494
 Alpha virt. eigenvalues --    2.13185   2.14074   2.14615   2.15455   2.15724
 Alpha virt. eigenvalues --    2.17651   2.18541   2.19500   2.21184   2.22192
 Alpha virt. eigenvalues --    2.23408   2.24980   2.25115   2.26855   2.27479
 Alpha virt. eigenvalues --    2.28693   2.30158   2.32128   2.32157   2.35761
 Alpha virt. eigenvalues --    2.37311   2.41079   2.41753   2.43470   2.44257
 Alpha virt. eigenvalues --    2.44718   2.45832   2.46031   2.46986   2.47782
 Alpha virt. eigenvalues --    2.51844   2.53629   2.54298   2.57483   2.58224
 Alpha virt. eigenvalues --    2.59950   2.60754   2.63255   2.66665   2.67499
 Alpha virt. eigenvalues --    2.68163   2.68225   2.69887   2.71254   2.73278
 Alpha virt. eigenvalues --    2.73389   2.74218   2.74950   2.75251   2.77284
 Alpha virt. eigenvalues --    2.77893   2.78465   2.80125   2.81153   2.81529
 Alpha virt. eigenvalues --    2.81891   2.82454   2.83495   2.84432   2.84957
 Alpha virt. eigenvalues --    2.85122   2.85898   2.86293   2.86670   2.87938
 Alpha virt. eigenvalues --    2.88719   2.90904   2.91439   2.92064   2.94492
 Alpha virt. eigenvalues --    2.96216   2.96676   2.97686   2.98331   2.99219
 Alpha virt. eigenvalues --    2.99842   3.01403   3.01858   3.07368   3.08744
 Alpha virt. eigenvalues --    3.09825   3.12795   3.13898   3.15001   3.15315
 Alpha virt. eigenvalues --    3.16778   3.17068   3.17285   3.17509   3.18240
 Alpha virt. eigenvalues --    3.19912   3.20054   3.23899   3.25218   3.25970
 Alpha virt. eigenvalues --    3.26643   3.27018   3.27501   3.28020   3.29303
 Alpha virt. eigenvalues --    3.31281   3.33034   3.33740   3.35189   3.39402
 Alpha virt. eigenvalues --    3.42257   3.45852   3.48317   3.49600   3.51753
 Alpha virt. eigenvalues --    3.53509   3.55994   3.58457   3.59548   3.60543
 Alpha virt. eigenvalues --    3.65958   3.67449   3.69909   3.71520   3.73893
 Alpha virt. eigenvalues --    3.74657   3.75220   3.77388   3.86014   3.87033
 Alpha virt. eigenvalues --    3.87993   3.88873   3.92155   3.96278   3.99122
 Alpha virt. eigenvalues --    4.00269   4.04384   4.11444   4.14536   4.18709
 Alpha virt. eigenvalues --    4.21211   4.23463   4.28947   4.30461   4.31787
 Alpha virt. eigenvalues --    4.37313   4.41744   4.44832   4.50236   4.64697
 Alpha virt. eigenvalues --    4.80798   4.92845   4.96555   5.09779   5.10208
 Alpha virt. eigenvalues --    5.10612   5.12117   5.54110   5.59160   5.61347
 Alpha virt. eigenvalues --    5.62169   5.85821   5.86303   5.91077   6.01788
 Alpha virt. eigenvalues --   23.68794  23.77141  23.85138  23.93330  23.98290
 Alpha virt. eigenvalues --   24.01946  24.05644  24.08516  24.09697  24.10553
 Alpha virt. eigenvalues --   24.13683  24.18301  24.21608  24.23327  24.29048
 Alpha virt. eigenvalues --   24.29511  24.33214  24.34850  24.36924  50.06187
 Alpha virt. eigenvalues --   50.08759  50.09289  50.11551
          Condensed to atoms (all electrons):
               1          2          3          4          5          6
     1  C   12.552117   1.140278  -2.391497   0.228822   0.121238  -0.800296
     2  C    1.140278  15.831698  -2.949473  -0.421148   0.735484  -2.340995
     3  C   -2.391497  -2.949473  15.816637   0.544124  -2.492051   4.348357
     4  C    0.228822  -0.421148   0.544124   7.743200  -0.411389  -0.176555
     5  C    0.121238   0.735484  -2.492051  -0.411389   8.593674  -0.176827
     6  C   -0.800296  -2.340995   4.348357  -0.176555  -0.176827   9.732163
     7  C    0.561155  -1.945801  -3.744675  -0.063925   0.186473  -2.884948
     8  C   -4.605265  -3.374316  -2.578686  -0.938643  -0.745322  -1.681239
     9  H   -0.028352  -0.111579   0.668523  -0.116126  -0.085592   0.084906
    10  H    0.053744   0.049923  -0.058998  -0.168112   0.518277  -0.052196
    11  H   -0.073732  -0.023622   0.098870   0.040178  -0.124985   0.425826
    12  H    0.062465   0.118871  -0.037696  -0.009215   0.021689  -0.034943
    13  O    0.059887   0.068268  -0.494987   0.355368   0.068991  -0.068506
    14  H    0.007463   0.020105   0.091310   0.081483  -0.179883   0.002737
    15  O    0.419766   0.079566  -0.481651  -0.055120   0.037829   0.053271
    16  C   -0.407328   0.189022   0.250536   0.064128  -0.042772   0.323710
    17  C   -0.298465  -1.087009   0.344289  -0.098089  -0.018506   0.297564
    18  C   -1.543440   0.017460  -0.235946  -0.008262  -0.013305  -0.585267
    19  C    0.846653  -0.978098  -0.024484  -0.024185   0.013643   0.126099
    20  H   -0.065195   0.027771  -0.031498   0.002755   0.010335  -0.016066
    21  C   -0.062141   0.672769   0.024144   0.013869  -0.008838  -0.119749
    22  H   -0.027880  -0.005248   0.016126   0.000856  -0.004979   0.006609
    23  C   -0.246085  -0.039926   0.063259   0.005222  -0.000059  -0.046718
    24  O   -0.002097  -0.003245  -0.000008  -0.000025   0.000020  -0.000091
    25  H    0.006083  -0.001806  -0.000482  -0.000064   0.000189   0.000998
    26  O   -0.008517   0.005284   0.000513   0.000178  -0.000069  -0.000470
    27  H    0.001808   0.000238  -0.000164  -0.000086  -0.000318   0.000110
    28  C   -0.088020  -0.012517   0.006720   0.001042  -0.000169  -0.006424
    29  H    0.006506  -0.005845  -0.000300  -0.000074   0.000063   0.000456
    30  C   -0.001047   0.031452   0.002286   0.000277  -0.000042  -0.000304
    31  H   -0.001355   0.002926   0.000075   0.000024  -0.000025  -0.000207
    32  C    0.000763   0.001275   0.000171   0.000010   0.000003   0.000050
    33  C   -0.000020   0.000103   0.000012   0.000000   0.000000  -0.000004
    34  H    0.000004  -0.000031  -0.000000  -0.000000   0.000000   0.000001
    35  H    0.000002   0.000002   0.000000   0.000000   0.000000   0.000000
    36  C   -0.000031   0.000016  -0.000012  -0.000000  -0.000000   0.000004
    37  H   -0.000022   0.000020   0.000002   0.000000  -0.000000  -0.000001
    38  H   -0.000022   0.000020   0.000002   0.000000  -0.000000  -0.000001
    39  H   -0.000003  -0.000003   0.000000  -0.000000  -0.000000   0.000000
               7          8          9         10         11         12
     1  C    0.561155  -4.605265  -0.028352   0.053744  -0.073732   0.062465
     2  C   -1.945801  -3.374316  -0.111579   0.049923  -0.023622   0.118871
     3  C   -3.744675  -2.578686   0.668523  -0.058998   0.098870  -0.037696
     4  C   -0.063925  -0.938643  -0.116126  -0.168112   0.040178  -0.009215
     5  C    0.186473  -0.745322  -0.085592   0.518277  -0.124985   0.021689
     6  C   -2.884948  -1.681239   0.084906  -0.052196   0.425826  -0.034943
     7  C   11.659164   3.108595  -0.063882   0.008522  -0.044931   0.364405
     8  C    3.108595  17.092248  -0.005207  -0.010515   0.023137  -0.091367
     9  H   -0.063882  -0.005207   0.438041  -0.000563   0.002596  -0.000503
    10  H    0.008522  -0.010515  -0.000563   0.450416  -0.010761   0.001996
    11  H   -0.044931   0.023137   0.002596  -0.010761   0.439493  -0.004589
    12  H    0.364405  -0.091367  -0.000503   0.001996  -0.004589   0.435709
    13  O    0.013186   0.011424  -0.026237  -0.009445  -0.001317   0.000147
    14  H   -0.000727  -0.006562   0.003094  -0.005344   0.001104   0.000013
    15  O   -0.033655  -0.082092  -0.008547   0.001624  -0.002959   0.015407
    16  C   -0.386094  -0.597222  -0.006067  -0.000918   0.009291  -0.042927
    17  C   -1.139839  -0.814024   0.007787  -0.000038   0.001439  -0.034325
    18  C    0.475148   0.807909  -0.012156   0.000151  -0.002452  -0.037410
    19  C    0.128632  -0.079094   0.008799  -0.000010  -0.000195  -0.016546
    20  H    0.023911   0.003671  -0.005238   0.000221  -0.000418   0.001528
    21  C   -0.373744   0.202080  -0.001463   0.000083  -0.000445   0.003130
    22  H   -0.029061  -0.059926   0.000111  -0.000247   0.002402  -0.018029
    23  C    0.248101   0.306818   0.001345   0.000040  -0.000928   0.042912
    24  O    0.008159  -0.025338  -0.000003   0.000000   0.000009   0.000726
    25  H    0.006146   0.012884   0.000001   0.000003  -0.000035   0.001869
    26  O   -0.006662  -0.028311  -0.000099  -0.000001   0.000003  -0.000125
    27  H   -0.002267   0.013956   0.000200  -0.000005   0.000015  -0.000261
    28  C    0.070844  -0.151006  -0.000501  -0.000002  -0.000099   0.005734
    29  H    0.011082   0.013341   0.000041   0.000000  -0.000003  -0.000026
    30  C   -0.008511   0.046481  -0.000052  -0.000001   0.000010  -0.001020
    31  H   -0.003955   0.011824  -0.000003  -0.000000   0.000001   0.000246
    32  C    0.003698   0.005532  -0.000005  -0.000000   0.000000  -0.000357
    33  C    0.000333  -0.000621  -0.000000   0.000000   0.000000  -0.000058
    34  H    0.000013  -0.000382   0.000000   0.000000  -0.000000  -0.000007
    35  H    0.000012   0.000061   0.000000  -0.000000   0.000000  -0.000000
    36  C   -0.000610  -0.000916   0.000000  -0.000000  -0.000000  -0.000001
    37  H   -0.000031  -0.000039  -0.000000   0.000000   0.000000   0.000002
    38  H   -0.000031  -0.000039  -0.000000   0.000000   0.000000   0.000002
    39  H   -0.000009  -0.000113  -0.000000  -0.000000  -0.000000  -0.000001
              13         14         15         16         17         18
     1  C    0.059887   0.007463   0.419766  -0.407328  -0.298465  -1.543440
     2  C    0.068268   0.020105   0.079566   0.189022  -1.087009   0.017460
     3  C   -0.494987   0.091310  -0.481651   0.250536   0.344289  -0.235946
     4  C    0.355368   0.081483  -0.055120   0.064128  -0.098089  -0.008262
     5  C    0.068991  -0.179883   0.037829  -0.042772  -0.018506  -0.013305
     6  C   -0.068506   0.002737   0.053271   0.323710   0.297564  -0.585267
     7  C    0.013186  -0.000727  -0.033655  -0.386094  -1.139839   0.475148
     8  C    0.011424  -0.006562  -0.082092  -0.597222  -0.814024   0.807909
     9  H   -0.026237   0.003094  -0.008547  -0.006067   0.007787  -0.012156
    10  H   -0.009445  -0.005344   0.001624  -0.000918  -0.000038   0.000151
    11  H   -0.001317   0.001104  -0.002959   0.009291   0.001439  -0.002452
    12  H    0.000147   0.000013   0.015407  -0.042927  -0.034325  -0.037410
    13  O    8.005130   0.280340  -0.001281  -0.001458   0.000200   0.000257
    14  H    0.280340   0.388004  -0.000322   0.000222  -0.000341  -0.000094
    15  O   -0.001281  -0.000322   8.298886  -0.176676   0.112464  -0.208457
    16  C   -0.001458   0.000222  -0.176676  11.636134   1.948341   0.921602
    17  C    0.000200  -0.000341   0.112464   1.948341  17.024692   0.167849
    18  C    0.000257  -0.000094  -0.208457   0.921602   0.167849  11.505111
    19  C    0.000109  -0.000022   0.076099  -3.663045   0.374332  -0.697987
    20  H    0.000065  -0.000040  -0.006021   0.162858   0.543089   0.088716
    21  C   -0.000027   0.000029  -0.001993  -1.367336  -1.431106   4.152859
    22  H    0.000004   0.000002  -0.007423   0.003713   0.060566   0.478097
    23  C    0.000013  -0.000007  -0.043894  -3.273961  -8.452509  -6.033485
    24  O    0.000000  -0.000000   0.000105   0.007981   0.018519  -0.076459
    25  H   -0.000000  -0.000000   0.000392   0.003729  -0.007740  -0.056948
    26  O   -0.000000   0.000000  -0.000347   0.057224   0.424957   0.006899
    27  H   -0.000002   0.000001   0.000295  -0.062482  -0.337053   0.002440
    28  C   -0.000000  -0.000001  -0.008927   0.449749  -1.428985  -1.372505
    29  H    0.000000  -0.000000  -0.000173  -0.029866  -0.322329   0.065829
    30  C   -0.000000   0.000000   0.000013  -0.546397   0.790501  -0.565217
    31  H   -0.000000   0.000000   0.000063  -0.024283   0.058393  -0.090305
    32  C   -0.000000   0.000000  -0.000029  -0.165099  -0.092957   0.206826
    33  C   -0.000000  -0.000000   0.000005  -0.017016   0.041650  -0.031660
    34  H    0.000000  -0.000000  -0.000001   0.001268  -0.002519   0.003150
    35  H   -0.000000   0.000000  -0.000000  -0.000377   0.000016   0.000721
    36  C    0.000000   0.000000  -0.000014  -0.002101  -0.041424   0.008998
    37  H   -0.000000  -0.000000   0.000001   0.000568   0.004564  -0.001853
    38  H   -0.000000  -0.000000   0.000001   0.000568   0.004569  -0.001857
    39  H    0.000000  -0.000000   0.000000   0.000255  -0.000518  -0.000164
              19         20         21         22         23         24
     1  C    0.846653  -0.065195  -0.062141  -0.027880  -0.246085  -0.002097
     2  C   -0.978098   0.027771   0.672769  -0.005248  -0.039926  -0.003245
     3  C   -0.024484  -0.031498   0.024144   0.016126   0.063259  -0.000008
     4  C   -0.024185   0.002755   0.013869   0.000856   0.005222  -0.000025
     5  C    0.013643   0.010335  -0.008838  -0.004979  -0.000059   0.000020
     6  C    0.126099  -0.016066  -0.119749   0.006609  -0.046718  -0.000091
     7  C    0.128632   0.023911  -0.373744  -0.029061   0.248101   0.008159
     8  C   -0.079094   0.003671   0.202080  -0.059926   0.306818  -0.025338
     9  H    0.008799  -0.005238  -0.001463   0.000111   0.001345  -0.000003
    10  H   -0.000010   0.000221   0.000083  -0.000247   0.000040   0.000000
    11  H   -0.000195  -0.000418  -0.000445   0.002402  -0.000928   0.000009
    12  H   -0.016546   0.001528   0.003130  -0.018029   0.042912   0.000726
    13  O    0.000109   0.000065  -0.000027   0.000004   0.000013   0.000000
    14  H   -0.000022  -0.000040   0.000029   0.000002  -0.000007  -0.000000
    15  O    0.076099  -0.006021  -0.001993  -0.007423  -0.043894   0.000105
    16  C   -3.663045   0.162858  -1.367336   0.003713  -3.273961   0.007981
    17  C    0.374332   0.543089  -1.431106   0.060566  -8.452509   0.018519
    18  C   -0.697987   0.088716   4.152859   0.478097  -6.033485  -0.076459
    19  C   16.640339  -0.284076   0.124091   0.030782  -2.646166  -0.008696
    20  H   -0.284076   0.473444  -0.011731  -0.000959  -0.141827   0.001185
    21  C    0.124091  -0.011731  15.151435  -0.041223  -4.067143   0.321421
    22  H    0.030782  -0.000959  -0.041223   0.538842  -0.046466  -0.021150
    23  C   -2.646166  -0.141827  -4.067143  -0.046466  25.419381  -0.267171
    24  O   -0.008696   0.001185   0.321421  -0.021150  -0.267171   8.067537
    25  H   -0.005713   0.000364   0.032671  -0.019181   0.058256   0.237171
    26  O    0.404586  -0.013932  -0.127712   0.001759  -0.883305  -0.000323
    27  H    0.139344  -0.009599   0.037162   0.000820   0.251622  -0.000107
    28  C   -4.034510   0.015660  -2.662956  -0.028880   4.648464  -0.085309
    29  H   -0.354750  -0.000731   0.245906   0.000155   0.364672  -0.003757
    30  C    1.306783   0.004165  -2.475188   0.017132  -0.482318   0.071405
    31  H    0.113528   0.000579  -0.210608  -0.000791   0.097621  -0.065201
    32  C   -0.676321   0.001359  -0.058995   0.005476  -0.866170   0.022714
    33  C    0.129950   0.000357  -0.209011   0.002190  -0.000333   0.022720
    34  H   -0.009147  -0.000020   0.017838   0.000074  -0.004890   0.001662
    35  H   -0.000419  -0.000002  -0.000194   0.000009  -0.002992   0.000131
    36  C   -0.040122  -0.000727   0.026472  -0.000177  -0.066651  -0.006913
    37  H    0.001959   0.000007  -0.009541  -0.000023  -0.007172   0.000348
    38  H    0.001988   0.000007  -0.009554  -0.000023  -0.007189   0.000348
    39  H    0.000398   0.000002  -0.001189   0.000018   0.004506  -0.000162
              25         26         27         28         29         30
     1  C    0.006083  -0.008517   0.001808  -0.088020   0.006506  -0.001047
     2  C   -0.001806   0.005284   0.000238  -0.012517  -0.005845   0.031452
     3  C   -0.000482   0.000513  -0.000164   0.006720  -0.000300   0.002286
     4  C   -0.000064   0.000178  -0.000086   0.001042  -0.000074   0.000277
     5  C    0.000189  -0.000069  -0.000318  -0.000169   0.000063  -0.000042
     6  C    0.000998  -0.000470   0.000110  -0.006424   0.000456  -0.000304
     7  C    0.006146  -0.006662  -0.002267   0.070844   0.011082  -0.008511
     8  C    0.012884  -0.028311   0.013956  -0.151006   0.013341   0.046481
     9  H    0.000001  -0.000099   0.000200  -0.000501   0.000041  -0.000052
    10  H    0.000003  -0.000001  -0.000005  -0.000002   0.000000  -0.000001
    11  H   -0.000035   0.000003   0.000015  -0.000099  -0.000003   0.000010
    12  H    0.001869  -0.000125  -0.000261   0.005734  -0.000026  -0.001020
    13  O   -0.000000  -0.000000  -0.000002  -0.000000   0.000000  -0.000000
    14  H   -0.000000   0.000000   0.000001  -0.000001  -0.000000   0.000000
    15  O    0.000392  -0.000347   0.000295  -0.008927  -0.000173   0.000013
    16  C    0.003729   0.057224  -0.062482   0.449749  -0.029866  -0.546397
    17  C   -0.007740   0.424957  -0.337053  -1.428985  -0.322329   0.790501
    18  C   -0.056948   0.006899   0.002440  -1.372505   0.065829  -0.565217
    19  C   -0.005713   0.404586   0.139344  -4.034510  -0.354750   1.306783
    20  H    0.000364  -0.013932  -0.009599   0.015660  -0.000731   0.004165
    21  C    0.032671  -0.127712   0.037162  -2.662956   0.245906  -2.475188
    22  H   -0.019181   0.001759   0.000820  -0.028880   0.000155   0.017132
    23  C    0.058256  -0.883305   0.251622   4.648464   0.364672  -0.482318
    24  O    0.237171  -0.000323  -0.000107  -0.085309  -0.003757   0.071405
    25  H    0.408022  -0.000258  -0.000057   0.018652   0.001612  -0.021726
    26  O   -0.000258   7.984979   0.257012   0.071532  -0.074727   0.110572
    27  H   -0.000057   0.257012   0.408250  -0.016213   0.010199  -0.011515
    28  C    0.018652   0.071532  -0.016213  11.241304   0.552451   0.018503
    29  H    0.001612  -0.074727   0.010199   0.552451   0.569212  -0.292093
    30  C   -0.021726   0.110572  -0.011515   0.018503  -0.292093   9.089831
    31  H    0.004406  -0.001157  -0.000299  -0.017709  -0.011441   0.591845
    32  C   -0.000084   0.021135  -0.000041  -1.641690   0.077742  -1.311700
    33  C   -0.002119   0.000437   0.000320  -0.456786   0.022015  -0.266205
    34  H   -0.000180   0.000127   0.000010   0.038356   0.001462   0.044643
    35  H    0.000024  -0.000007   0.000001  -0.003359  -0.000177   0.064830
    36  C   -0.000551   0.011654  -0.000141  -0.003449  -0.044656  -0.046176
    37  H   -0.000036   0.000810  -0.000141  -0.018101  -0.000744  -0.018574
    38  H   -0.000036   0.000810  -0.000141  -0.018070  -0.000757  -0.018519
    39  H   -0.000011   0.000301   0.000012   0.026526   0.003241   0.055355
              31         32         33         34         35         36
     1  C   -0.001355   0.000763  -0.000020   0.000004   0.000002  -0.000031
     2  C    0.002926   0.001275   0.000103  -0.000031   0.000002   0.000016
     3  C    0.000075   0.000171   0.000012  -0.000000   0.000000  -0.000012
     4  C    0.000024   0.000010   0.000000  -0.000000   0.000000  -0.000000
     5  C   -0.000025   0.000003   0.000000   0.000000   0.000000  -0.000000
     6  C   -0.000207   0.000050  -0.000004   0.000001   0.000000   0.000004
     7  C   -0.003955   0.003698   0.000333   0.000013   0.000012  -0.000610
     8  C    0.011824   0.005532  -0.000621  -0.000382   0.000061  -0.000916
     9  H   -0.000003  -0.000005  -0.000000   0.000000   0.000000   0.000000
    10  H   -0.000000  -0.000000   0.000000   0.000000  -0.000000  -0.000000
    11  H    0.000001   0.000000   0.000000  -0.000000   0.000000  -0.000000
    12  H    0.000246  -0.000357  -0.000058  -0.000007  -0.000000  -0.000001
    13  O   -0.000000  -0.000000  -0.000000   0.000000  -0.000000   0.000000
    14  H    0.000000   0.000000  -0.000000  -0.000000   0.000000   0.000000
    15  O    0.000063  -0.000029   0.000005  -0.000001  -0.000000  -0.000014
    16  C   -0.024283  -0.165099  -0.017016   0.001268  -0.000377  -0.002101
    17  C    0.058393  -0.092957   0.041650  -0.002519   0.000016  -0.041424
    18  C   -0.090305   0.206826  -0.031660   0.003150   0.000721   0.008998
    19  C    0.113528  -0.676321   0.129950  -0.009147  -0.000419  -0.040122
    20  H    0.000579   0.001359   0.000357  -0.000020  -0.000002  -0.000727
    21  C   -0.210608  -0.058995  -0.209011   0.017838  -0.000194   0.026472
    22  H   -0.000791   0.005476   0.002190   0.000074   0.000009  -0.000177
    23  C    0.097621  -0.866170  -0.000333  -0.004890  -0.002992  -0.066651
    24  O   -0.065201   0.022714   0.022720   0.001662   0.000131  -0.006913
    25  H    0.004406  -0.000084  -0.002119  -0.000180   0.000024  -0.000551
    26  O   -0.001157   0.021135   0.000437   0.000127  -0.000007   0.011654
    27  H   -0.000299  -0.000041   0.000320   0.000010   0.000001  -0.000141
    28  C   -0.017709  -1.641690  -0.456786   0.038356  -0.003359  -0.003449
    29  H   -0.011441   0.077742   0.022015   0.001462  -0.000177  -0.044656
    30  C    0.591845  -1.311700  -0.266205   0.044643   0.064830  -0.046176
    31  H    0.526424  -0.198989  -0.045265  -0.003063  -0.000995   0.048300
    32  C   -0.198989  10.216545   0.313748  -0.076314  -0.025167  -0.021917
    33  C   -0.045265   0.313748   7.222386   0.341293   0.359466  -0.867286
    34  H   -0.003063  -0.076314   0.341293   0.456349  -0.013276   0.005293
    35  H   -0.000995  -0.025167   0.359466  -0.013276   0.450783  -0.027100
    36  C    0.048300  -0.021917  -0.867286   0.005293  -0.027100   6.853353
    37  H   -0.001429   0.024034   0.020389  -0.000823   0.000779   0.366619
    38  H   -0.001426   0.023973   0.020380  -0.000825   0.000780   0.366609
    39  H   -0.000243  -0.105828  -0.033323  -0.000015   0.001383   0.402962
              37         38         39
     1  C   -0.000022  -0.000022  -0.000003
     2  C    0.000020   0.000020  -0.000003
     3  C    0.000002   0.000002   0.000000
     4  C    0.000000   0.000000  -0.000000
     5  C   -0.000000  -0.000000  -0.000000
     6  C   -0.000001  -0.000001   0.000000
     7  C   -0.000031  -0.000031  -0.000009
     8  C   -0.000039  -0.000039  -0.000113
     9  H   -0.000000  -0.000000  -0.000000
    10  H    0.000000   0.000000  -0.000000
    11  H    0.000000   0.000000  -0.000000
    12  H    0.000002   0.000002  -0.000001
    13  O   -0.000000  -0.000000   0.000000
    14  H   -0.000000  -0.000000  -0.000000
    15  O    0.000001   0.000001   0.000000
    16  C    0.000568   0.000568   0.000255
    17  C    0.004564   0.004569  -0.000518
    18  C   -0.001853  -0.001857  -0.000164
    19  C    0.001959   0.001988   0.000398
    20  H    0.000007   0.000007   0.000002
    21  C   -0.009541  -0.009554  -0.001189
    22  H   -0.000023  -0.000023   0.000018
    23  C   -0.007172  -0.007189   0.004506
    24  O    0.000348   0.000348  -0.000162
    25  H   -0.000036  -0.000036  -0.000011
    26  O    0.000810   0.000810   0.000301
    27  H   -0.000141  -0.000141   0.000012
    28  C   -0.018101  -0.018070   0.026526
    29  H   -0.000744  -0.000757   0.003241
    30  C   -0.018574  -0.018519   0.055355
    31  H   -0.001429  -0.001426  -0.000243
    32  C    0.024034   0.023973  -0.105828
    33  C    0.020389   0.020380  -0.033323
    34  H   -0.000823  -0.000825  -0.000015
    35  H    0.000779   0.000780   0.001383
    36  C    0.366619   0.366609   0.402962
    37  H    0.542745  -0.067217  -0.015564
    38  H   -0.067217   0.542749  -0.015564
    39  H   -0.015564  -0.015564   0.491249
 Mulliken charges:
               1
     1  C    0.582053
     2  C    0.308115
     3  C   -0.753347
     4  C   -0.590517
     5  C   -0.002775
     6  C   -0.411056
     7  C   -0.144219
     8  C    0.216283
     9  H    0.256731
    10  H    0.232153
    11  H    0.247097
    12  H    0.252554
    13  O   -0.260129
    14  H    0.317436
    15  O    0.023796
    16  C    0.782526
    17  C   -0.618005
    18  C   -1.334794
    19  C   -0.924526
    20  H    0.226032
    21  C   -1.774075
    22  H    0.145924
    23  C    2.115131
    24  O   -0.216107
    25  H    0.323557
    26  O   -0.214750
    27  H    0.317077
    28  C    0.890652
    29  H    0.196468
    30  C   -0.179478
    31  H    0.222495
    32  C    0.316610
    33  C   -0.568046
    34  H    0.199949
    35  H    0.195062
    36  C   -0.919304
    37  H    0.178464
    38  H    0.178464
    39  H    0.186500
 Sum of Mulliken charges =  -0.00000
 Mulliken charges with hydrogens summed into heavy atoms:
               1
     1  C    0.582053
     2  C    0.308115
     3  C   -0.496616
     4  C   -0.590517
     5  C    0.229378
     6  C   -0.163959
     7  C    0.108335
     8  C    0.216283
    13  O    0.057308
    15  O    0.023796
    16  C    0.782526
    17  C   -0.391973
    18  C   -1.188871
    19  C   -0.924526
    21  C   -1.774075
    23  C    2.115131
    24  O    0.107449
    26  O    0.102327
    28  C    1.087119
    30  C    0.043017
    32  C    0.316610
    33  C   -0.173035
    36  C   -0.375876
 Electronic spatial extent (au):  <R**2>=          12809.2362
 Charge=             -0.0000 electrons
 Dipole moment (field-independent basis, Debye):
    X=             -4.6832    Y=             -2.7215    Z=             -0.0004  Tot=              5.4165
 Quadrupole moment (field-independent basis, Debye-Ang):
   XX=           -116.4409   YY=           -110.5822   ZZ=           -143.3909
   XY=             13.5150   XZ=              0.0021   YZ=              0.0004
 Traceless Quadrupole moment (field-independent basis, Debye-Ang):
   XX=              7.0304   YY=             12.8892   ZZ=            -19.9196
   XY=             13.5150   XZ=              0.0021   YZ=              0.0004
 Octapole moment (field-independent basis, Debye-Ang**2):
  XXX=           -324.1067  YYY=            -19.4624  ZZZ=              0.0015  XYY=             13.7822
  XXY=            -65.1266  XXZ=             -0.0133  XZZ=             -8.0307  YZZ=              8.3597
  YYZ=             -0.0018  XYZ=             -0.0034
 Hexadecapole moment (field-independent basis, Debye-Ang**3):
 XXXX=         -12692.1197 YYYY=          -1104.0978 ZZZZ=           -166.9332 XXXY=            649.4192
 XXXZ=              0.0262 YYYX=            -19.4487 YYYZ=             -0.0133 ZZZX=             -0.0992
 ZZZY=             -0.0175 XXYY=          -2870.7829 XXZZ=          -2922.4696 YYZZ=           -281.0500
 XXYZ=              0.0112 YYXZ=             -0.0153 ZZXY=             -7.5983
 N-N= 1.706127666550D+03 E-N=-5.825880695000D+03  KE= 1.030307541346D+03
 1\1\GINC-NODE2\SP\RwB97XD\6-311++G(d,p)\C19H16O4\ZHOUJUNSU\11-Jul-2023
 \0\\# wb97xd/6-311++G(d,p) integral(ultrafinegrid) guess=read geom=che
 ck scrf=(cpcm,read,solvent=water)\\Candidate Structure: MaDA-TS-1, Con
 former: 1, Single-point energies calculated with wB97X-D/6-311++G(d,p)
 \\0,1\C,0,-3.8451007365,-1.0467069418,-0.0001526456\C,0,-3.7579417006,
 0.3513943452,0.0000023654\C,0,-4.8524498803,1.202487394,0.0000807654\C
 ,0,-6.1030768282,0.5907301559,-0.0000060321\C,0,-6.2321352256,-0.81339
 15687,-0.0001637113\C,0,-5.1151671782,-1.6342948914,-0.0002377399\C,0,
 -2.4838573115,-1.5137733392,-0.0001845642\C,0,-1.6967303657,-0.4067393
 282,-0.0000489099\H,0,-4.7538467474,2.2816415255,0.0002017832\H,0,-7.2
 257116789,-1.2537998322,-0.0002286566\H,0,-5.231281051,-2.7133068389,-
 0.0003590664\H,0,-2.1496195852,-2.5412644126,-0.0003035164\O,0,-7.1892
 600477,1.408776494,0.0000689978\H,0,-7.9957709327,0.8768916289,-0.0000
 042305\O,0,-2.4580827575,0.7416368133,0.0000657058\C,0,-0.2493015871,-
 0.2189607033,-0.000017941\C,0,0.2957296354,1.0656333938,-0.0000424809\
 C,0,0.6031839027,-1.3242334337,0.0000313899\C,0,1.6768786284,1.2303705
 909,-0.0000217434\H,0,-0.3542159937,1.9344784302,-0.000080628\C,0,1.98
 35235033,-1.1450274535,0.000047563\H,0,0.1999616183,-2.3327350702,0.00
 00663559\C,0,2.5717785266,0.1376921171,0.0000215956\O,0,2.8127415926,-
 2.2180021693,0.0000970515\H,0,2.289406149,-3.0305862165,0.0001150463\O
 ,0,2.2246293147,2.473360385,-0.0000466876\H,0,1.519703028,3.1338227471
 ,-0.0000689822\C,0,4.0092188403,0.4181188761,0.0000421096\H,0,4.233408
 9342,1.4803491084,0.00004651\C,0,5.047616987,-0.439614166,0.0000528516
 \H,0,4.8756693812,-1.5097660211,0.0000462072\C,0,6.4551313759,-0.02031
 19804,0.0000730283\C,0,7.420189496,-0.9520912963,0.0000832122\H,0,7.18
 33916374,-2.0133542079,0.0000767181\H,0,8.4732443552,-0.6842267225,0.0
 000981933\C,0,6.7877520395,1.4503265002,0.0000822586\H,0,6.3691510963,
 1.9503136734,-0.8812967863\H,0,6.3691287144,1.9503077081,0.8814540545\
 H,0,7.8693418512,1.6079557065,0.0000965588\\Version=ES64L-G16RevA.03\S
 tate=1-A\HF=-1034.464154\RMSD=6.613e-09\Dipole=-1.8425247,-1.0706825,-
 0.0001456\Quadrupole=5.2271658,9.5825678,-14.8097336,10.0481098,0.0015
 624,0.0003033\PG=C01 [X(C19H16O4)]\\@


 IF YOU GIVE EVERYONE A PIECE OF YOUR MIND,
 PRETTY SOON IT WILL BE ALL GONE.
 Job cpu time:       0 days  1 hours 22 minutes 56.3 seconds.
 Elapsed time:       0 days  0 hours  5 minutes 56.8 seconds.
 File lengths (MBytes):  RWF=    291 Int=      0 D2E=      0 Chk=     37 Scr=      2
 Normal termination of Gaussian 16 at Tue Jul 11 13:47:31 2023.
