 Entering Gaussian System, Link 0=g16
 Input=MaDA-1-opt_freq-conf-1.com
 Output=MaDA-1-opt_freq-conf-1.log
 Initial command:
 /public/home/zhoujunsu/g16/l1.exe "/public/home/zhoujunsu/g16/scratch/Gau-431042.inp" -scrdir="/public/home/zhoujunsu/g16/scratch/"
 Entering Link 1 = /public/home/zhoujunsu/g16/l1.exe PID=    431043.
  
 Copyright (c) 1988,1990,1992,1993,1995,1998,2003,2009,2016,
            Gaussian, Inc.  All Rights Reserved.
  
 This is part of the Gaussian(R) 16 program.  It is based on
 the Gaussian(R) 09 system (copyright 2009, Gaussian, Inc.),
 the Gaussian(R) 03 system (copyright 2003, Gaussian, Inc.),
 the Gaussian(R) 98 system (copyright 1998, Gaussian, Inc.),
 the Gaussian(R) 94 system (copyright 1995, Gaussian, Inc.),
 the Gaussian 92(TM) system (copyright 1992, Gaussian, Inc.),
 the Gaussian 90(TM) system (copyright 1990, Gaussian, Inc.),
 the Gaussian 88(TM) system (copyright 1988, Gaussian, Inc.),
 the Gaussian 86(TM) system (copyright 1986, Carnegie Mellon
 University), and the Gaussian 82(TM) system (copyright 1983,
 Carnegie Mellon University). Gaussian is a federally registered
 trademark of Gaussian, Inc.
  
 This software contains proprietary and confidential information,
 including trade secrets, belonging to Gaussian, Inc.
  
 This software is provided under written license and may be
 used, copied, transmitted, or stored only in accord with that
 written license.
  
 The following legend is applicable only to US Government
 contracts under FAR:
  
                    RESTRICTED RIGHTS LEGEND
  
 Use, reproduction and disclosure by the US Government is
 subject to restrictions as set forth in subparagraphs (a)
 and (c) of the Commercial Computer Software - Restricted
 Rights clause in FAR 52.227-19.
  
 Gaussian, Inc.
 340 Quinnipiac St., Bldg. 40, Wallingford CT 06492
  
  
 ---------------------------------------------------------------
 Warning -- This program may not be used in any manner that
 competes with the business of Gaussian, Inc. or will provide
 assistance to any competitor of Gaussian, Inc.  The licensee
 of this program is prohibited from giving any competitor of
 Gaussian, Inc. access to this program.  By using this program,
 the user acknowledges that Gaussian, Inc. is engaged in the
 business of creating and licensing software in the field of
 computational chemistry and represents and warrants to the
 licensee that it is not a competitor of Gaussian, Inc. and that
 it will not use this program in any manner prohibited above.
 ---------------------------------------------------------------
  

 Cite this work as:
 Gaussian 16, Revision A.03,
 M. J. Frisch, G. W. Trucks, H. B. Schlegel, G. E. Scuseria, 
 M. A. Robb, J. R. Cheeseman, G. Scalmani, V. Barone, 
 G. A. Petersson, H. Nakatsuji, X. Li, M. Caricato, A. V. Marenich, 
 J. Bloino, B. G. Janesko, R. Gomperts, B. Mennucci, H. P. Hratchian, 
 J. V. Ortiz, A. F. Izmaylov, J. L. Sonnenberg, D. Williams-Young, 
 F. Ding, F. Lipparini, F. Egidi, J. Goings, B. Peng, A. Petrone, 
 T. Henderson, D. Ranasinghe, V. G. Zakrzewski, J. Gao, N. Rega, 
 G. Zheng, W. Liang, M. Hada, M. Ehara, K. Toyota, R. Fukuda, 
 J. Hasegawa, M. Ishida, T. Nakajima, Y. Honda, O. Kitao, H. Nakai, 
 T. Vreven, K. Throssell, J. A. Montgomery, Jr., J. E. Peralta, 
 F. Ogliaro, M. J. Bearpark, J. J. Heyd, E. N. Brothers, K. N. Kudin, 
 V. N. Staroverov, T. A. Keith, R. Kobayashi, J. Normand, 
 K. Raghavachari, A. P. Rendell, J. C. Burant, S. S. Iyengar, 
 J. Tomasi, M. Cossi, J. M. Millam, M. Klene, C. Adamo, R. Cammi, 
 J. W. Ochterski, R. L. Martin, K. Morokuma, O. Farkas, 
 J. B. Foresman, and D. J. Fox, Gaussian, Inc., Wallingford CT, 2016.
 
 ******************************************
 Gaussian 16:  ES64L-G16RevA.03 25-Dec-2016
                11-Jul-2023 
 ******************************************
 %mem=28gb
 %nproc=14
 Will use up to   14 processors via shared memory.
 %chk=MaDA-1-conf-1.chk
 ----------------------------------------------------------------------
 # wb97xd/6-31G(d) opt freq=noraman integral(ultrafinegrid) scrf=(cpcm,
 read,solvent=water)
 ----------------------------------------------------------------------
 1/18=20,19=15,26=6,38=1,40=2/1,3;
 2/9=110,12=2,17=6,18=5,40=1/2;
 3/5=1,6=6,7=1,11=2,25=1,30=1,70=2103,71=1,72=1,74=-58,75=-5/1,2,3;
 4//1;
 5/5=2,38=5,53=1/2;
 6/7=2,8=2,9=2,10=2,28=1/1;
 7//1,2,3,16;
 1/18=20,19=15,26=6/3(2);
 2/9=110/2;
 99//99;
 2/9=110/2;
 3/5=1,6=6,7=1,11=2,25=1,30=1,70=2105,71=1,72=1,74=-58,75=-5/1,2,3;
 4/5=5,16=3,69=1/1;
 5/5=2,38=5,53=1/2;
 7//1,2,3,16;
 1/18=20,19=15,26=6/3(-5);
 2/9=110/2;
 6/7=2,8=2,9=2,10=2,19=2,28=1/1;
 99/9=1/99;
 ----------------------------------------------------------------------
 Candidate Structure: MaDA-1, Conformer: 1, geometry optimization and f
 requency calculation with water solvation
 ----------------------------------------------------------------------
 Symbolic Z-matrix:
 Charge =  0 Multiplicity = 1
 C                    -6.49867   1.91476  -1.59338 
 C                    -7.39139   0.89133  -1.90613 
 C                    -7.32804  -0.31787  -1.22126 
 C                    -6.37034  -0.48646  -0.22378 
 C                    -5.46622   0.51293   0.12079 
 C                    -5.5507    1.71858  -0.59707 
 H                    -6.55951   2.85214  -2.13987 
 H                    -8.01628  -1.12486  -1.46006 
 H                    -6.32779  -1.43909   0.29444 
 O                    -8.29546   1.14081  -2.8908 
 H                    -8.84721   0.35937  -3.01437 
 O                    -4.65385   2.69641  -0.2735 
 H                    -4.84639   3.48569  -0.79329 
 C                    -4.39792   0.36487   1.19154 
 H                    -4.35082   1.32078   1.72535 
 C                    -3.02604   0.16153   0.50551 
 H                    -2.97397   0.84418  -0.33963 
 C                    -1.84733   0.43132   1.42852 
 O                    -1.82588  -0.11996   2.54051 
 C                    -0.69397   1.19416   0.94248 
 C                    -0.75078   2.03261  -0.18788 
 C                     0.57896   0.95476   1.52747 
 C                     0.3846    2.5784   -0.73707 
 H                    -1.71369   2.27501  -0.62408 
 C                     1.75528   1.45958   0.94925 
 C                     1.63801   2.26116  -0.1868 
 H                     0.34481   3.2405   -1.59479 
 O                     0.71791   0.19573   2.61772 
 H                    -0.18722  -0.08155   2.89609 
 O                     2.71711   2.77073  -0.82058 
 H                     3.50768   2.63408  -0.27037 
 C                     1.33091  -1.46204  -1.0513 
 C                     0.41405  -0.89394  -1.94021 
 C                     0.87559  -2.11753   0.08468 
 C                    -0.93609  -0.92541  -1.63442 
 H                     0.75867  -0.39211  -2.8402 
 C                    -0.48896  -2.13082   0.38524 
 H                     1.56547  -2.53888   0.80513 
 C                    -1.4288   -1.52667  -0.46637 
 O                    -0.8146   -2.70908   1.56589 
 H                    -1.71306  -2.44711   1.82526 
 O                    -1.85508  -0.31172  -2.43669 
 H                    -1.39095   0.1144   -3.16655 
 C                    -2.88512  -1.27321  -0.10071 
 H                    -3.44789  -1.25     -1.04202 
 C                    -3.51208  -2.34794   0.75035 
 H                    -3.29618  -3.37311   0.45017 
 C                    -4.33793  -2.12496   1.77777 
 C                    -4.69729  -0.73085   2.22313 
 H                    -5.76162  -0.69732   2.4913 
 H                    -4.14019  -0.51562   3.14145 
 C                    -4.95191  -3.24706   2.56786 
 H                    -4.60231  -4.226     2.22732 
 H                    -4.71004  -3.14671   3.63344 
 H                    -6.04677  -3.22513   2.48993 
 C                     4.83293  -0.60798  -1.80936 
 C                     4.87785  -1.6808   -0.90711 
 C                     6.04794  -2.23624  -0.41454 
 C                     7.23453  -1.67017  -0.87003 
 C                     7.22973  -0.5977   -1.78234 
 C                     6.04008  -0.06276  -2.25339 
 C                     3.43375  -0.35589  -2.02882 
 C                     2.75827  -1.26748  -1.28313 
 H                     6.05427  -3.06393   0.28408 
 H                     8.17732  -0.18303  -2.11926 
 H                     6.05339   0.76675  -2.95345 
 H                     2.99642   0.43856  -2.61517 
 O                     8.39456  -2.20175  -0.39555 
 H                     9.14086  -1.73476  -0.78879 
 O                     3.62219  -2.0819   -0.5893 
 C                     3.10633   1.09703   1.52821 
 H                     2.93853   0.55708   2.46444 
 H                     3.61072   0.39335   0.85476 
 C                     3.96898   2.30794   1.79616 
 H                     3.43291   3.1504    2.23547 
 C                     5.28416   2.45328   1.57888 
 C                     6.18922   1.38628   1.02409 
 H                     6.73188   1.75414   0.14518 
 H                     6.94604   1.11522   1.77125 
 H                     5.66756   0.47262   0.73556 
 C                     5.98149   3.7436    1.9291 
 H                     5.28827   4.49124   2.32496 
 H                     6.76256   3.56884   2.68004 
 H                     6.4807    4.16876   1.04895 
 

 GradGradGradGradGradGradGradGradGradGradGradGradGradGradGradGradGradGrad
 Berny optimization.
 Initialization pass.
                           ----------------------------
                           !    Initial Parameters    !
                           ! (Angstroms and Degrees)  !
 --------------------------                            --------------------------
 ! Name  Definition              Value          Derivative Info.                !
 --------------------------------------------------------------------------------
 ! R1    R(1,2)                  1.3936         estimate D2E/DX2                !
 ! R2    R(1,6)                  1.3892         estimate D2E/DX2                !
 ! R3    R(1,7)                  1.0868         estimate D2E/DX2                !
 ! R4    R(2,3)                  1.3911         estimate D2E/DX2                !
 ! R5    R(2,10)                 1.3598         estimate D2E/DX2                !
 ! R6    R(3,4)                  1.393          estimate D2E/DX2                !
 ! R7    R(3,8)                  1.0872         estimate D2E/DX2                !
 ! R8    R(4,5)                  1.391          estimate D2E/DX2                !
 ! R9    R(4,9)                  1.0853         estimate D2E/DX2                !
 ! R10   R(5,6)                  1.4057         estimate D2E/DX2                !
 ! R11   R(5,14)                 1.5198         estimate D2E/DX2                !
 ! R12   R(6,12)                 1.3657         estimate D2E/DX2                !
 ! R13   R(10,11)                0.9645         estimate D2E/DX2                !
 ! R14   R(12,13)                0.9645         estimate D2E/DX2                !
 ! R15   R(14,15)                1.0959         estimate D2E/DX2                !
 ! R16   R(14,16)                1.5473         estimate D2E/DX2                !
 ! R17   R(14,49)                1.5344         estimate D2E/DX2                !
 ! R18   R(16,17)                1.0876         estimate D2E/DX2                !
 ! R19   R(16,18)                1.5212         estimate D2E/DX2                !
 ! R20   R(16,44)                1.5639         estimate D2E/DX2                !
 ! R21   R(18,19)                1.2413         estimate D2E/DX2                !
 ! R22   R(18,20)                1.4657         estimate D2E/DX2                !
 ! R23   R(20,21)                1.4085         estimate D2E/DX2                !
 ! R24   R(20,22)                1.4212         estimate D2E/DX2                !
 ! R25   R(21,23)                1.3743         estimate D2E/DX2                !
 ! R26   R(21,24)                1.0845         estimate D2E/DX2                !
 ! R27   R(22,25)                1.4046         estimate D2E/DX2                !
 ! R28   R(22,28)                1.3357         estimate D2E/DX2                !
 ! R29   R(23,26)                1.4052         estimate D2E/DX2                !
 ! R30   R(23,27)                1.0843         estimate D2E/DX2                !
 ! R31   R(25,26)                1.3953         estimate D2E/DX2                !
 ! R32   R(25,71)                1.5139         estimate D2E/DX2                !
 ! R33   R(26,30)                1.3512         estimate D2E/DX2                !
 ! R34   R(28,29)                0.9867         estimate D2E/DX2                !
 ! R35   R(30,31)                0.9728         estimate D2E/DX2                !
 ! R36   R(32,33)                1.3977         estimate D2E/DX2                !
 ! R37   R(32,34)                1.3883         estimate D2E/DX2                !
 ! R38   R(32,63)                1.4591         estimate D2E/DX2                !
 ! R39   R(33,35)                1.3847         estimate D2E/DX2                !
 ! R40   R(33,36)                1.0865         estimate D2E/DX2                !
 ! R41   R(34,37)                1.3973         estimate D2E/DX2                !
 ! R42   R(34,38)                1.0828         estimate D2E/DX2                !
 ! R43   R(35,39)                1.4031         estimate D2E/DX2                !
 ! R44   R(35,42)                1.3656         estimate D2E/DX2                !
 ! R45   R(37,39)                1.4048         estimate D2E/DX2                !
 ! R46   R(37,40)                1.3544         estimate D2E/DX2                !
 ! R47   R(39,44)                1.5228         estimate D2E/DX2                !
 ! R48   R(40,41)                0.9712         estimate D2E/DX2                !
 ! R49   R(42,43)                0.9642         estimate D2E/DX2                !
 ! R50   R(44,45)                1.097          estimate D2E/DX2                !
 ! R51   R(44,46)                1.5075         estimate D2E/DX2                !
 ! R52   R(46,47)                1.0898         estimate D2E/DX2                !
 ! R53   R(46,48)                1.3369         estimate D2E/DX2                !
 ! R54   R(48,49)                1.507          estimate D2E/DX2                !
 ! R55   R(48,52)                1.5034         estimate D2E/DX2                !
 ! R56   R(49,50)                1.0981         estimate D2E/DX2                !
 ! R57   R(49,51)                1.0954         estimate D2E/DX2                !
 ! R58   R(52,53)                1.0939         estimate D2E/DX2                !
 ! R59   R(52,54)                1.0973         estimate D2E/DX2                !
 ! R60   R(52,55)                1.0979         estimate D2E/DX2                !
 ! R61   R(56,57)                1.4025         estimate D2E/DX2                !
 ! R62   R(56,61)                1.397          estimate D2E/DX2                !
 ! R63   R(56,62)                1.4385         estimate D2E/DX2                !
 ! R64   R(57,58)                1.3857         estimate D2E/DX2                !
 ! R65   R(57,70)                1.3559         estimate D2E/DX2                !
 ! R66   R(58,59)                1.3914         estimate D2E/DX2                !
 ! R67   R(58,64)                1.0831         estimate D2E/DX2                !
 ! R68   R(59,60)                1.408          estimate D2E/DX2                !
 ! R69   R(59,68)                1.3614         estimate D2E/DX2                !
 ! R70   R(60,61)                1.3868         estimate D2E/DX2                !
 ! R71   R(60,65)                1.0878         estimate D2E/DX2                !
 ! R72   R(61,66)                1.0855         estimate D2E/DX2                !
 ! R73   R(62,63)                1.3577         estimate D2E/DX2                !
 ! R74   R(62,67)                1.0799         estimate D2E/DX2                !
 ! R75   R(63,70)                1.3751         estimate D2E/DX2                !
 ! R76   R(68,69)                0.9642         estimate D2E/DX2                !
 ! R77   R(71,72)                1.0937         estimate D2E/DX2                !
 ! R78   R(71,73)                1.0969         estimate D2E/DX2                !
 ! R79   R(71,74)                1.5107         estimate D2E/DX2                !
 ! R80   R(74,75)                1.0909         estimate D2E/DX2                !
 ! R81   R(74,76)                1.3409         estimate D2E/DX2                !
 ! R82   R(76,77)                1.5051         estimate D2E/DX2                !
 ! R83   R(76,81)                1.5079         estimate D2E/DX2                !
 ! R84   R(77,78)                1.0965         estimate D2E/DX2                !
 ! R85   R(77,79)                1.0975         estimate D2E/DX2                !
 ! R86   R(77,80)                1.0909         estimate D2E/DX2                !
 ! R87   R(81,82)                1.0937         estimate D2E/DX2                !
 ! R88   R(81,83)                1.0975         estimate D2E/DX2                !
 ! R89   R(81,84)                1.0976         estimate D2E/DX2                !
 ! A1    A(2,1,6)              119.6284         estimate D2E/DX2                !
 ! A2    A(2,1,7)              118.9937         estimate D2E/DX2                !
 ! A3    A(6,1,7)              121.3778         estimate D2E/DX2                !
 ! A4    A(1,2,3)              119.9128         estimate D2E/DX2                !
 ! A5    A(1,2,10)             116.9781         estimate D2E/DX2                !
 ! A6    A(3,2,10)             123.109          estimate D2E/DX2                !
 ! A7    A(2,3,4)              119.276          estimate D2E/DX2                !
 ! A8    A(2,3,8)              120.5471         estimate D2E/DX2                !
 ! A9    A(4,3,8)              120.177          estimate D2E/DX2                !
 ! A10   A(3,4,5)              122.4979         estimate D2E/DX2                !
 ! A11   A(3,4,9)              118.3648         estimate D2E/DX2                !
 ! A12   A(5,4,9)              119.1352         estimate D2E/DX2                !
 ! A13   A(4,5,6)              116.7846         estimate D2E/DX2                !
 ! A14   A(4,5,14)             124.1538         estimate D2E/DX2                !
 ! A15   A(6,5,14)             119.0517         estimate D2E/DX2                !
 ! A16   A(1,6,5)              121.8969         estimate D2E/DX2                !
 ! A17   A(1,6,12)             121.1268         estimate D2E/DX2                !
 ! A18   A(5,6,12)             116.9762         estimate D2E/DX2                !
 ! A19   A(2,10,11)            108.9321         estimate D2E/DX2                !
 ! A20   A(6,12,13)            109.0953         estimate D2E/DX2                !
 ! A21   A(5,14,15)            106.763          estimate D2E/DX2                !
 ! A22   A(5,14,16)            108.8859         estimate D2E/DX2                !
 ! A23   A(5,14,49)            113.9595         estimate D2E/DX2                !
 ! A24   A(15,14,16)           107.008          estimate D2E/DX2                !
 ! A25   A(15,14,49)           107.6855         estimate D2E/DX2                !
 ! A26   A(16,14,49)           112.1626         estimate D2E/DX2                !
 ! A27   A(14,16,17)           107.7272         estimate D2E/DX2                !
 ! A28   A(14,16,18)           113.2466         estimate D2E/DX2                !
 ! A29   A(14,16,44)           111.8589         estimate D2E/DX2                !
 ! A30   A(17,16,18)           108.8483         estimate D2E/DX2                !
 ! A31   A(17,16,44)           105.681          estimate D2E/DX2                !
 ! A32   A(18,16,44)           109.1522         estimate D2E/DX2                !
 ! A33   A(16,18,19)           118.5658         estimate D2E/DX2                !
 ! A34   A(16,18,20)           120.0536         estimate D2E/DX2                !
 ! A35   A(19,18,20)           120.9698         estimate D2E/DX2                !
 ! A36   A(18,20,21)           122.9687         estimate D2E/DX2                !
 ! A37   A(18,20,22)           118.7251         estimate D2E/DX2                !
 ! A38   A(21,20,22)           117.8221         estimate D2E/DX2                !
 ! A39   A(20,21,23)           121.5869         estimate D2E/DX2                !
 ! A40   A(20,21,24)           119.4479         estimate D2E/DX2                !
 ! A41   A(23,21,24)           118.9487         estimate D2E/DX2                !
 ! A42   A(20,22,25)           121.339          estimate D2E/DX2                !
 ! A43   A(20,22,28)           121.66           estimate D2E/DX2                !
 ! A44   A(25,22,28)           116.9446         estimate D2E/DX2                !
 ! A45   A(21,23,26)           119.3931         estimate D2E/DX2                !
 ! A46   A(21,23,27)           121.8927         estimate D2E/DX2                !
 ! A47   A(26,23,27)           118.7097         estimate D2E/DX2                !
 ! A48   A(22,25,26)           118.1161         estimate D2E/DX2                !
 ! A49   A(22,25,71)           120.2569         estimate D2E/DX2                !
 ! A50   A(26,25,71)           121.5968         estimate D2E/DX2                !
 ! A51   A(23,26,25)           121.5676         estimate D2E/DX2                !
 ! A52   A(23,26,30)           116.3306         estimate D2E/DX2                !
 ! A53   A(25,26,30)           122.1015         estimate D2E/DX2                !
 ! A54   A(22,28,29)           107.1294         estimate D2E/DX2                !
 ! A55   A(26,30,31)           109.3137         estimate D2E/DX2                !
 ! A56   A(33,32,34)           119.8122         estimate D2E/DX2                !
 ! A57   A(33,32,63)           119.1086         estimate D2E/DX2                !
 ! A58   A(34,32,63)           120.9171         estimate D2E/DX2                !
 ! A59   A(32,33,35)           119.3355         estimate D2E/DX2                !
 ! A60   A(32,33,36)           120.4281         estimate D2E/DX2                !
 ! A61   A(35,33,36)           120.1774         estimate D2E/DX2                !
 ! A62   A(32,34,37)           120.0505         estimate D2E/DX2                !
 ! A63   A(32,34,38)           121.2769         estimate D2E/DX2                !
 ! A64   A(37,34,38)           118.3827         estimate D2E/DX2                !
 ! A65   A(33,35,39)           122.411          estimate D2E/DX2                !
 ! A66   A(33,35,42)           121.0787         estimate D2E/DX2                !
 ! A67   A(39,35,42)           116.4456         estimate D2E/DX2                !
 ! A68   A(34,37,39)           121.2541         estimate D2E/DX2                !
 ! A69   A(34,37,40)           115.2367         estimate D2E/DX2                !
 ! A70   A(39,37,40)           123.4497         estimate D2E/DX2                !
 ! A71   A(35,39,37)           117.0019         estimate D2E/DX2                !
 ! A72   A(35,39,44)           117.6728         estimate D2E/DX2                !
 ! A73   A(37,39,44)           124.4598         estimate D2E/DX2                !
 ! A74   A(37,40,41)           109.8817         estimate D2E/DX2                !
 ! A75   A(35,42,43)           108.6256         estimate D2E/DX2                !
 ! A76   A(16,44,39)           109.3873         estimate D2E/DX2                !
 ! A77   A(16,44,45)           105.485          estimate D2E/DX2                !
 ! A78   A(16,44,46)           113.4364         estimate D2E/DX2                !
 ! A79   A(39,44,45)           106.7449         estimate D2E/DX2                !
 ! A80   A(39,44,46)           114.4984         estimate D2E/DX2                !
 ! A81   A(45,44,46)           106.629          estimate D2E/DX2                !
 ! A82   A(44,46,47)           115.6423         estimate D2E/DX2                !
 ! A83   A(44,46,48)           124.8818         estimate D2E/DX2                !
 ! A84   A(47,46,48)           119.4025         estimate D2E/DX2                !
 ! A85   A(46,48,49)           121.9181         estimate D2E/DX2                !
 ! A86   A(46,48,52)           122.1175         estimate D2E/DX2                !
 ! A87   A(49,48,52)           115.9611         estimate D2E/DX2                !
 ! A88   A(14,49,48)           114.5443         estimate D2E/DX2                !
 ! A89   A(14,49,50)           109.3592         estimate D2E/DX2                !
 ! A90   A(14,49,51)           108.9093         estimate D2E/DX2                !
 ! A91   A(48,49,50)           109.3629         estimate D2E/DX2                !
 ! A92   A(48,49,51)           107.9523         estimate D2E/DX2                !
 ! A93   A(50,49,51)           106.3912         estimate D2E/DX2                !
 ! A94   A(48,52,53)           111.9521         estimate D2E/DX2                !
 ! A95   A(48,52,54)           110.614          estimate D2E/DX2                !
 ! A96   A(48,52,55)           110.7972         estimate D2E/DX2                !
 ! A97   A(53,52,54)           108.2832         estimate D2E/DX2                !
 ! A98   A(53,52,55)           108.3312         estimate D2E/DX2                !
 ! A99   A(54,52,55)           106.6741         estimate D2E/DX2                !
 ! A100  A(57,56,61)           118.3807         estimate D2E/DX2                !
 ! A101  A(57,56,62)           105.2689         estimate D2E/DX2                !
 ! A102  A(61,56,62)           136.3495         estimate D2E/DX2                !
 ! A103  A(56,57,58)           124.2171         estimate D2E/DX2                !
 ! A104  A(56,57,70)           110.328          estimate D2E/DX2                !
 ! A105  A(58,57,70)           125.4542         estimate D2E/DX2                !
 ! A106  A(57,58,59)           116.1464         estimate D2E/DX2                !
 ! A107  A(57,58,64)           122.7185         estimate D2E/DX2                !
 ! A108  A(59,58,64)           121.1351         estimate D2E/DX2                !
 ! A109  A(58,59,60)           121.2713         estimate D2E/DX2                !
 ! A110  A(58,59,68)           116.983          estimate D2E/DX2                !
 ! A111  A(60,59,68)           121.7456         estimate D2E/DX2                !
 ! A112  A(59,60,61)           121.1184         estimate D2E/DX2                !
 ! A113  A(59,60,65)           119.2122         estimate D2E/DX2                !
 ! A114  A(61,60,65)           119.6692         estimate D2E/DX2                !
 ! A115  A(56,61,60)           118.8643         estimate D2E/DX2                !
 ! A116  A(56,61,66)           120.9182         estimate D2E/DX2                !
 ! A117  A(60,61,66)           120.2174         estimate D2E/DX2                !
 ! A118  A(56,62,63)           106.4063         estimate D2E/DX2                !
 ! A119  A(56,62,67)           127.2751         estimate D2E/DX2                !
 ! A120  A(63,62,67)           126.2048         estimate D2E/DX2                !
 ! A121  A(32,63,62)           131.5669         estimate D2E/DX2                !
 ! A122  A(32,63,70)           117.0928         estimate D2E/DX2                !
 ! A123  A(62,63,70)           111.2359         estimate D2E/DX2                !
 ! A124  A(59,68,69)           109.1636         estimate D2E/DX2                !
 ! A125  A(57,70,63)           106.7575         estimate D2E/DX2                !
 ! A126  A(25,71,72)           107.9788         estimate D2E/DX2                !
 ! A127  A(25,71,73)           109.2205         estimate D2E/DX2                !
 ! A128  A(25,71,74)           112.6727         estimate D2E/DX2                !
 ! A129  A(72,71,73)           106.2249         estimate D2E/DX2                !
 ! A130  A(72,71,74)           109.3591         estimate D2E/DX2                !
 ! A131  A(73,71,74)           111.1332         estimate D2E/DX2                !
 ! A132  A(71,74,75)           114.1934         estimate D2E/DX2                !
 ! A133  A(71,74,76)           128.1852         estimate D2E/DX2                !
 ! A134  A(75,74,76)           117.6143         estimate D2E/DX2                !
 ! A135  A(74,76,77)           124.9362         estimate D2E/DX2                !
 ! A136  A(74,76,81)           120.5761         estimate D2E/DX2                !
 ! A137  A(77,76,81)           114.4656         estimate D2E/DX2                !
 ! A138  A(76,77,78)           110.8069         estimate D2E/DX2                !
 ! A139  A(76,77,79)           109.8043         estimate D2E/DX2                !
 ! A140  A(76,77,80)           113.8077         estimate D2E/DX2                !
 ! A141  A(78,77,79)           106.6946         estimate D2E/DX2                !
 ! A142  A(78,77,80)           107.7958         estimate D2E/DX2                !
 ! A143  A(79,77,80)           107.635          estimate D2E/DX2                !
 ! A144  A(76,81,82)           112.0792         estimate D2E/DX2                !
 ! A145  A(76,81,83)           110.5955         estimate D2E/DX2                !
 ! A146  A(76,81,84)           110.8276         estimate D2E/DX2                !
 ! A147  A(82,81,83)           108.196          estimate D2E/DX2                !
 ! A148  A(82,81,84)           108.2841         estimate D2E/DX2                !
 ! A149  A(83,81,84)           106.6593         estimate D2E/DX2                !
 ! D1    D(6,1,2,3)             -0.0309         estimate D2E/DX2                !
 ! D2    D(6,1,2,10)          -179.9296         estimate D2E/DX2                !
 ! D3    D(7,1,2,3)            179.8148         estimate D2E/DX2                !
 ! D4    D(7,1,2,10)            -0.0839         estimate D2E/DX2                !
 ! D5    D(2,1,6,5)             -0.4549         estimate D2E/DX2                !
 ! D6    D(2,1,6,12)           179.4432         estimate D2E/DX2                !
 ! D7    D(7,1,6,5)            179.7032         estimate D2E/DX2                !
 ! D8    D(7,1,6,12)            -0.3987         estimate D2E/DX2                !
 ! D9    D(1,2,3,4)              0.2314         estimate D2E/DX2                !
 ! D10   D(1,2,3,8)           -179.7088         estimate D2E/DX2                !
 ! D11   D(10,2,3,4)          -179.8764         estimate D2E/DX2                !
 ! D12   D(10,2,3,8)             0.1834         estimate D2E/DX2                !
 ! D13   D(1,2,10,11)          179.6745         estimate D2E/DX2                !
 ! D14   D(3,2,10,11)           -0.2207         estimate D2E/DX2                !
 ! D15   D(2,3,4,5)              0.0458         estimate D2E/DX2                !
 ! D16   D(2,3,4,9)           -179.4156         estimate D2E/DX2                !
 ! D17   D(8,3,4,5)            179.9862         estimate D2E/DX2                !
 ! D18   D(8,3,4,9)              0.5248         estimate D2E/DX2                !
 ! D19   D(3,4,5,6)             -0.5006         estimate D2E/DX2                !
 ! D20   D(3,4,5,14)          -179.3405         estimate D2E/DX2                !
 ! D21   D(9,4,5,6)            178.9568         estimate D2E/DX2                !
 ! D22   D(9,4,5,14)             0.1169         estimate D2E/DX2                !
 ! D23   D(4,5,6,1)              0.7059         estimate D2E/DX2                !
 ! D24   D(4,5,6,12)          -179.1963         estimate D2E/DX2                !
 ! D25   D(14,5,6,1)           179.6077         estimate D2E/DX2                !
 ! D26   D(14,5,6,12)           -0.2945         estimate D2E/DX2                !
 ! D27   D(4,5,14,15)         -140.7232         estimate D2E/DX2                !
 ! D28   D(4,5,14,16)          104.0683         estimate D2E/DX2                !
 ! D29   D(4,5,14,49)          -21.9696         estimate D2E/DX2                !
 ! D30   D(6,5,14,15)           40.4615         estimate D2E/DX2                !
 ! D31   D(6,5,14,16)          -74.747          estimate D2E/DX2                !
 ! D32   D(6,5,14,49)          159.2152         estimate D2E/DX2                !
 ! D33   D(1,6,12,13)            3.4741         estimate D2E/DX2                !
 ! D34   D(5,6,12,13)         -176.623          estimate D2E/DX2                !
 ! D35   D(5,14,16,17)          41.6419         estimate D2E/DX2                !
 ! D36   D(5,14,16,18)         162.0697         estimate D2E/DX2                !
 ! D37   D(5,14,16,44)         -74.0781         estimate D2E/DX2                !
 ! D38   D(15,14,16,17)        -73.4081         estimate D2E/DX2                !
 ! D39   D(15,14,16,18)         47.0197         estimate D2E/DX2                !
 ! D40   D(15,14,16,44)        170.872          estimate D2E/DX2                !
 ! D41   D(49,14,16,17)        168.7116         estimate D2E/DX2                !
 ! D42   D(49,14,16,18)        -70.8606         estimate D2E/DX2                !
 ! D43   D(49,14,16,44)         52.9917         estimate D2E/DX2                !
 ! D44   D(5,14,49,48)          81.7593         estimate D2E/DX2                !
 ! D45   D(5,14,49,50)         -41.387          estimate D2E/DX2                !
 ! D46   D(5,14,49,51)        -157.2697         estimate D2E/DX2                !
 ! D47   D(15,14,49,48)       -160.014          estimate D2E/DX2                !
 ! D48   D(15,14,49,50)         76.8397         estimate D2E/DX2                !
 ! D49   D(15,14,49,51)        -39.0429         estimate D2E/DX2                !
 ! D50   D(16,14,49,48)        -42.5372         estimate D2E/DX2                !
 ! D51   D(16,14,49,50)       -165.6835         estimate D2E/DX2                !
 ! D52   D(16,14,49,51)         78.4339         estimate D2E/DX2                !
 ! D53   D(14,16,18,19)         50.5982         estimate D2E/DX2                !
 ! D54   D(14,16,18,20)       -136.6853         estimate D2E/DX2                !
 ! D55   D(17,16,18,19)        170.387          estimate D2E/DX2                !
 ! D56   D(17,16,18,20)        -16.8964         estimate D2E/DX2                !
 ! D57   D(44,16,18,19)        -74.7224         estimate D2E/DX2                !
 ! D58   D(44,16,18,20)         97.9941         estimate D2E/DX2                !
 ! D59   D(14,16,44,39)       -166.9043         estimate D2E/DX2                !
 ! D60   D(14,16,44,45)         78.6125         estimate D2E/DX2                !
 ! D61   D(14,16,44,46)        -37.7309         estimate D2E/DX2                !
 ! D62   D(17,16,44,39)         76.1355         estimate D2E/DX2                !
 ! D63   D(17,16,44,45)        -38.3477         estimate D2E/DX2                !
 ! D64   D(17,16,44,46)       -154.6911         estimate D2E/DX2                !
 ! D65   D(18,16,44,39)        -40.7822         estimate D2E/DX2                !
 ! D66   D(18,16,44,45)       -155.2654         estimate D2E/DX2                !
 ! D67   D(18,16,44,46)         88.3912         estimate D2E/DX2                !
 ! D68   D(16,18,20,21)         19.3516         estimate D2E/DX2                !
 ! D69   D(16,18,20,22)       -152.4846         estimate D2E/DX2                !
 ! D70   D(19,18,20,21)       -168.1098         estimate D2E/DX2                !
 ! D71   D(19,18,20,22)         20.054          estimate D2E/DX2                !
 ! D72   D(18,20,21,23)       -170.2153         estimate D2E/DX2                !
 ! D73   D(18,20,21,24)         11.2775         estimate D2E/DX2                !
 ! D74   D(22,20,21,23)          1.6903         estimate D2E/DX2                !
 ! D75   D(22,20,21,24)       -176.8169         estimate D2E/DX2                !
 ! D76   D(18,20,22,25)        167.9834         estimate D2E/DX2                !
 ! D77   D(18,20,22,28)         -9.2023         estimate D2E/DX2                !
 ! D78   D(21,20,22,25)         -4.2749         estimate D2E/DX2                !
 ! D79   D(21,20,22,28)        178.5395         estimate D2E/DX2                !
 ! D80   D(20,21,23,26)          2.0515         estimate D2E/DX2                !
 ! D81   D(20,21,23,27)       -178.735          estimate D2E/DX2                !
 ! D82   D(24,21,23,26)       -179.434          estimate D2E/DX2                !
 ! D83   D(24,21,23,27)         -0.2206         estimate D2E/DX2                !
 ! D84   D(20,22,25,26)          3.0064         estimate D2E/DX2                !
 ! D85   D(20,22,25,71)       -175.0287         estimate D2E/DX2                !
 ! D86   D(28,22,25,26)       -179.6807         estimate D2E/DX2                !
 ! D87   D(28,22,25,71)          2.2842         estimate D2E/DX2                !
 ! D88   D(20,22,28,29)         -2.3728         estimate D2E/DX2                !
 ! D89   D(25,22,28,29)       -179.6764         estimate D2E/DX2                !
 ! D90   D(21,23,26,25)         -3.4103         estimate D2E/DX2                !
 ! D91   D(21,23,26,30)        176.3755         estimate D2E/DX2                !
 ! D92   D(27,23,26,25)        177.3511         estimate D2E/DX2                !
 ! D93   D(27,23,26,30)         -2.8631         estimate D2E/DX2                !
 ! D94   D(22,25,26,23)          0.8829         estimate D2E/DX2                !
 ! D95   D(22,25,26,30)       -178.8905         estimate D2E/DX2                !
 ! D96   D(71,25,26,23)        178.8903         estimate D2E/DX2                !
 ! D97   D(71,25,26,30)         -0.8832         estimate D2E/DX2                !
 ! D98   D(22,25,71,72)         -7.8852         estimate D2E/DX2                !
 ! D99   D(22,25,71,73)        107.2167         estimate D2E/DX2                !
 ! D100  D(22,25,71,74)       -128.7661         estimate D2E/DX2                !
 ! D101  D(26,25,71,72)        174.1495         estimate D2E/DX2                !
 ! D102  D(26,25,71,73)        -70.7486         estimate D2E/DX2                !
 ! D103  D(26,25,71,74)         53.2686         estimate D2E/DX2                !
 ! D104  D(23,26,30,31)        169.4012         estimate D2E/DX2                !
 ! D105  D(25,26,30,31)        -10.8142         estimate D2E/DX2                !
 ! D106  D(34,32,33,35)          3.745          estimate D2E/DX2                !
 ! D107  D(34,32,33,36)       -179.044          estimate D2E/DX2                !
 ! D108  D(63,32,33,35)       -171.6707         estimate D2E/DX2                !
 ! D109  D(63,32,33,36)          5.5403         estimate D2E/DX2                !
 ! D110  D(33,32,34,37)         -4.3273         estimate D2E/DX2                !
 ! D111  D(33,32,34,38)       -178.0434         estimate D2E/DX2                !
 ! D112  D(63,32,34,37)        171.0039         estimate D2E/DX2                !
 ! D113  D(63,32,34,38)         -2.7123         estimate D2E/DX2                !
 ! D114  D(33,32,63,62)         18.8518         estimate D2E/DX2                !
 ! D115  D(33,32,63,70)       -165.2413         estimate D2E/DX2                !
 ! D116  D(34,32,63,62)       -156.5117         estimate D2E/DX2                !
 ! D117  D(34,32,63,70)         19.3952         estimate D2E/DX2                !
 ! D118  D(32,33,35,39)         -0.9281         estimate D2E/DX2                !
 ! D119  D(32,33,35,42)        176.0442         estimate D2E/DX2                !
 ! D120  D(36,33,35,39)       -178.1463         estimate D2E/DX2                !
 ! D121  D(36,33,35,42)         -1.174          estimate D2E/DX2                !
 ! D122  D(32,34,37,39)          2.0957         estimate D2E/DX2                !
 ! D123  D(32,34,37,40)       -175.1921         estimate D2E/DX2                !
 ! D124  D(38,34,37,39)        175.992          estimate D2E/DX2                !
 ! D125  D(38,34,37,40)         -1.2958         estimate D2E/DX2                !
 ! D126  D(33,35,39,37)         -1.2663         estimate D2E/DX2                !
 ! D127  D(33,35,39,44)        168.5669         estimate D2E/DX2                !
 ! D128  D(42,35,39,37)       -178.3703         estimate D2E/DX2                !
 ! D129  D(42,35,39,44)         -8.5371         estimate D2E/DX2                !
 ! D130  D(33,35,42,43)         -1.1951         estimate D2E/DX2                !
 ! D131  D(39,35,42,43)        175.9503         estimate D2E/DX2                !
 ! D132  D(34,37,39,35)          0.6849         estimate D2E/DX2                !
 ! D133  D(34,37,39,44)       -168.3861         estimate D2E/DX2                !
 ! D134  D(40,37,39,35)        177.7444         estimate D2E/DX2                !
 ! D135  D(40,37,39,44)          8.6734         estimate D2E/DX2                !
 ! D136  D(34,37,40,41)        162.9696         estimate D2E/DX2                !
 ! D137  D(39,37,40,41)        -14.2515         estimate D2E/DX2                !
 ! D138  D(35,39,44,16)        -76.6454         estimate D2E/DX2                !
 ! D139  D(35,39,44,45)         37.0231         estimate D2E/DX2                !
 ! D140  D(35,39,44,46)        154.7666         estimate D2E/DX2                !
 ! D141  D(37,39,44,16)         92.3583         estimate D2E/DX2                !
 ! D142  D(37,39,44,45)       -153.9731         estimate D2E/DX2                !
 ! D143  D(37,39,44,46)        -36.2296         estimate D2E/DX2                !
 ! D144  D(16,44,46,47)       -170.3698         estimate D2E/DX2                !
 ! D145  D(16,44,46,48)         12.7775         estimate D2E/DX2                !
 ! D146  D(39,44,46,47)        -43.8477         estimate D2E/DX2                !
 ! D147  D(39,44,46,48)        139.2996         estimate D2E/DX2                !
 ! D148  D(45,44,46,47)         73.9618         estimate D2E/DX2                !
 ! D149  D(45,44,46,48)       -102.8909         estimate D2E/DX2                !
 ! D150  D(44,46,48,49)         -2.015          estimate D2E/DX2                !
 ! D151  D(44,46,48,52)        178.6769         estimate D2E/DX2                !
 ! D152  D(47,46,48,49)       -178.758          estimate D2E/DX2                !
 ! D153  D(47,46,48,52)          1.9339         estimate D2E/DX2                !
 ! D154  D(46,48,49,14)         17.1643         estimate D2E/DX2                !
 ! D155  D(46,48,49,50)        140.3086         estimate D2E/DX2                !
 ! D156  D(46,48,49,51)       -104.3327         estimate D2E/DX2                !
 ! D157  D(52,48,49,14)       -163.4875         estimate D2E/DX2                !
 ! D158  D(52,48,49,50)        -40.3431         estimate D2E/DX2                !
 ! D159  D(52,48,49,51)         75.0156         estimate D2E/DX2                !
 ! D160  D(46,48,52,53)          2.6951         estimate D2E/DX2                !
 ! D161  D(46,48,52,54)        123.558          estimate D2E/DX2                !
 ! D162  D(46,48,52,55)       -118.3566         estimate D2E/DX2                !
 ! D163  D(49,48,52,53)       -176.6518         estimate D2E/DX2                !
 ! D164  D(49,48,52,54)        -55.7888         estimate D2E/DX2                !
 ! D165  D(49,48,52,55)         62.2965         estimate D2E/DX2                !
 ! D166  D(61,56,57,58)          0.4561         estimate D2E/DX2                !
 ! D167  D(61,56,57,70)       -179.8443         estimate D2E/DX2                !
 ! D168  D(62,56,57,58)       -179.262          estimate D2E/DX2                !
 ! D169  D(62,56,57,70)          0.4377         estimate D2E/DX2                !
 ! D170  D(57,56,61,60)         -0.267          estimate D2E/DX2                !
 ! D171  D(57,56,61,66)        179.8583         estimate D2E/DX2                !
 ! D172  D(62,56,61,60)        179.3389         estimate D2E/DX2                !
 ! D173  D(62,56,61,66)         -0.5358         estimate D2E/DX2                !
 ! D174  D(57,56,62,63)         -0.5767         estimate D2E/DX2                !
 ! D175  D(57,56,62,67)        175.7111         estimate D2E/DX2                !
 ! D176  D(61,56,62,63)        179.7827         estimate D2E/DX2                !
 ! D177  D(61,56,62,67)         -3.9295         estimate D2E/DX2                !
 ! D178  D(56,57,58,59)         -0.2203         estimate D2E/DX2                !
 ! D179  D(56,57,58,64)        179.8484         estimate D2E/DX2                !
 ! D180  D(70,57,58,59)       -179.8745         estimate D2E/DX2                !
 ! D181  D(70,57,58,64)          0.1942         estimate D2E/DX2                !
 ! D182  D(56,57,70,63)         -0.1279         estimate D2E/DX2                !
 ! D183  D(58,57,70,63)        179.5672         estimate D2E/DX2                !
 ! D184  D(57,58,59,60)         -0.1925         estimate D2E/DX2                !
 ! D185  D(57,58,59,68)        179.9175         estimate D2E/DX2                !
 ! D186  D(64,58,59,60)        179.74           estimate D2E/DX2                !
 ! D187  D(64,58,59,68)         -0.15           estimate D2E/DX2                !
 ! D188  D(58,59,60,61)          0.3676         estimate D2E/DX2                !
 ! D189  D(58,59,60,65)       -179.7717         estimate D2E/DX2                !
 ! D190  D(68,59,60,61)       -179.7477         estimate D2E/DX2                !
 ! D191  D(68,59,60,65)          0.113          estimate D2E/DX2                !
 ! D192  D(58,59,68,69)        179.3907         estimate D2E/DX2                !
 ! D193  D(60,59,68,69)         -0.4986         estimate D2E/DX2                !
 ! D194  D(59,60,61,56)         -0.1238         estimate D2E/DX2                !
 ! D195  D(59,60,61,66)        179.7518         estimate D2E/DX2                !
 ! D196  D(65,60,61,56)       -179.9839         estimate D2E/DX2                !
 ! D197  D(65,60,61,66)         -0.1083         estimate D2E/DX2                !
 ! D198  D(56,62,63,32)        176.6205         estimate D2E/DX2                !
 ! D199  D(56,62,63,70)          0.5297         estimate D2E/DX2                !
 ! D200  D(67,62,63,32)          0.2812         estimate D2E/DX2                !
 ! D201  D(67,62,63,70)       -175.8096         estimate D2E/DX2                !
 ! D202  D(32,63,70,57)       -176.9779         estimate D2E/DX2                !
 ! D203  D(62,63,70,57)         -0.2625         estimate D2E/DX2                !
 ! D204  D(25,71,74,75)         41.8015         estimate D2E/DX2                !
 ! D205  D(25,71,74,76)       -139.2051         estimate D2E/DX2                !
 ! D206  D(72,71,74,75)        -78.2871         estimate D2E/DX2                !
 ! D207  D(72,71,74,76)        100.7062         estimate D2E/DX2                !
 ! D208  D(73,71,74,75)        164.7562         estimate D2E/DX2                !
 ! D209  D(73,71,74,76)        -16.2504         estimate D2E/DX2                !
 ! D210  D(71,74,76,77)         -1.0323         estimate D2E/DX2                !
 ! D211  D(71,74,76,81)       -179.2265         estimate D2E/DX2                !
 ! D212  D(75,74,76,77)        177.9314         estimate D2E/DX2                !
 ! D213  D(75,74,76,81)         -0.2627         estimate D2E/DX2                !
 ! D214  D(74,76,77,78)        125.7974         estimate D2E/DX2                !
 ! D215  D(74,76,77,79)       -116.5911         estimate D2E/DX2                !
 ! D216  D(74,76,77,80)          4.1279         estimate D2E/DX2                !
 ! D217  D(81,76,77,78)        -55.9107         estimate D2E/DX2                !
 ! D218  D(81,76,77,79)         61.7008         estimate D2E/DX2                !
 ! D219  D(81,76,77,80)       -177.5802         estimate D2E/DX2                !
 ! D220  D(74,76,81,82)         -1.8066         estimate D2E/DX2                !
 ! D221  D(74,76,81,83)        119.0186         estimate D2E/DX2                !
 ! D222  D(74,76,81,84)       -122.9068         estimate D2E/DX2                !
 ! D223  D(77,76,81,82)        179.8198         estimate D2E/DX2                !
 ! D224  D(77,76,81,83)        -59.355          estimate D2E/DX2                !
 ! D225  D(77,76,81,84)         58.7196         estimate D2E/DX2                !
 --------------------------------------------------------------------------------
 Trust Radius=3.00D-01 FncErr=5.00D-06 GrdErr=5.00D-06 EigMax=2.50D+02 EigMin=1.00D-04
 Number of steps in this run=    473 maximum allowed number of steps=    504.
 GradGradGradGradGradGradGradGradGradGradGradGradGradGradGradGradGradGrad

 Stoichiometry    C39H36O9
 Framework group  C1[X(C39H36O9)]
 Deg. of freedom   246
 Full point group                 C1      NOp   1
 Largest Abelian subgroup         C1      NOp   1
 Largest concise Abelian subgroup C1      NOp   1
                         Standard orientation:                         
 ---------------------------------------------------------------------
 Center     Atomic      Atomic             Coordinates (Angstroms)
 Number     Number       Type             X           Y           Z
 ---------------------------------------------------------------------
      1          6           0       -6.498667    1.914759   -1.593379
      2          6           0       -7.391386    0.891330   -1.906126
      3          6           0       -7.328040   -0.317869   -1.221258
      4          6           0       -6.370338   -0.486456   -0.223777
      5          6           0       -5.466218    0.512931    0.120794
      6          6           0       -5.550703    1.718578   -0.597065
      7          1           0       -6.559512    2.852135   -2.139874
      8          1           0       -8.016282   -1.124859   -1.460064
      9          1           0       -6.327785   -1.439090    0.294438
     10          8           0       -8.295459    1.140811   -2.890796
     11          1           0       -8.847211    0.359372   -3.014375
     12          8           0       -4.653848    2.696407   -0.273498
     13          1           0       -4.846391    3.485690   -0.793290
     14          6           0       -4.397915    0.364865    1.191535
     15          1           0       -4.350823    1.320778    1.725347
     16          6           0       -3.026037    0.161530    0.505513
     17          1           0       -2.973967    0.844180   -0.339625
     18          6           0       -1.847328    0.431317    1.428519
     19          8           0       -1.825877   -0.119961    2.540513
     20          6           0       -0.693968    1.194162    0.942475
     21          6           0       -0.750783    2.032606   -0.187883
     22          6           0        0.578956    0.954759    1.527471
     23          6           0        0.384596    2.578395   -0.737070
     24          1           0       -1.713692    2.275013   -0.624083
     25          6           0        1.755276    1.459576    0.949248
     26          6           0        1.638012    2.261161   -0.186800
     27          1           0        0.344812    3.240500   -1.594794
     28          8           0        0.717910    0.195728    2.617719
     29          1           0       -0.187224   -0.081554    2.896086
     30          8           0        2.717114    2.770728   -0.820580
     31          1           0        3.507678    2.634083   -0.270372
     32          6           0        1.330908   -1.462036   -1.051298
     33          6           0        0.414051   -0.893935   -1.940210
     34          6           0        0.875585   -2.117534    0.084683
     35          6           0       -0.936091   -0.925408   -1.634415
     36          1           0        0.758672   -0.392113   -2.840197
     37          6           0       -0.488963   -2.130818    0.385244
     38          1           0        1.565471   -2.538881    0.805131
     39          6           0       -1.428801   -1.526666   -0.466368
     40          8           0       -0.814601   -2.709081    1.565886
     41          1           0       -1.713064   -2.447107    1.825258
     42          8           0       -1.855076   -0.311723   -2.436691
     43          1           0       -1.390951    0.114402   -3.166545
     44          6           0       -2.885115   -1.273214   -0.100711
     45          1           0       -3.447888   -1.249998   -1.042023
     46          6           0       -3.512081   -2.347936    0.750346
     47          1           0       -3.296175   -3.373114    0.450168
     48          6           0       -4.337932   -2.124963    1.777770
     49          6           0       -4.697294   -0.730851    2.223127
     50          1           0       -5.761622   -0.697317    2.491302
     51          1           0       -4.140187   -0.515624    3.141448
     52          6           0       -4.951908   -3.247057    2.567856
     53          1           0       -4.602315   -4.226005    2.227321
     54          1           0       -4.710038   -3.146714    3.633442
     55          1           0       -6.046771   -3.225125    2.489931
     56          6           0        4.832927   -0.607979   -1.809357
     57          6           0        4.877853   -1.680797   -0.907108
     58          6           0        6.047936   -2.236239   -0.414536
     59          6           0        7.234532   -1.670167   -0.870031
     60          6           0        7.229725   -0.597701   -1.782335
     61          6           0        6.040076   -0.062760   -2.253385
     62          6           0        3.433751   -0.355885   -2.028825
     63          6           0        2.758274   -1.267475   -1.283128
     64          1           0        6.054274   -3.063927    0.284078
     65          1           0        8.177321   -0.183030   -2.119256
     66          1           0        6.053394    0.766746   -2.953449
     67          1           0        2.996421    0.438556   -2.615165
     68          8           0        8.394564   -2.201748   -0.395546
     69          1           0        9.140861   -1.734762   -0.788789
     70          8           0        3.622189   -2.081900   -0.589298
     71          6           0        3.106331    1.097029    1.528210
     72          1           0        2.938532    0.557083    2.464441
     73          1           0        3.610718    0.393354    0.854760
     74          6           0        3.968981    2.307939    1.796157
     75          1           0        3.432905    3.150401    2.235465
     76          6           0        5.284165    2.453281    1.578878
     77          6           0        6.189221    1.386275    1.024088
     78          1           0        6.731883    1.754136    0.145177
     79          1           0        6.946044    1.115217    1.771249
     80          1           0        5.667564    0.472615    0.735557
     81          6           0        5.981489    3.743595    1.929097
     82          1           0        5.288271    4.491235    2.324958
     83          1           0        6.762558    3.568838    2.680042
     84          1           0        6.480697    4.168759    1.048947
 ---------------------------------------------------------------------
 Rotational constants (GHZ):           0.1435145           0.0347124           0.0335333
 Standard basis: 6-31G(d) (6D, 7F)
 There are   792 symmetry adapted cartesian basis functions of A   symmetry.
 There are   792 symmetry adapted basis functions of A   symmetry.
   792 basis functions,  1488 primitive gaussians,   792 cartesian basis functions
   171 alpha electrons      171 beta electrons
       nuclear repulsion energy      6316.1056738875 Hartrees.
 NAtoms=   84 NActive=   84 NUniq=   84 SFac= 1.00D+00 NAtFMM=   60 NAOKFM=T Big=T
 Integral buffers will be    131072 words long.
 Raffenetti 2 integral format.
 Two-electron integral symmetry is turned on.
 Nuclear repulsion after empirical dispersion term =     6316.0117054184 Hartrees.
 Using the following non-standard input for PCM:
 --- end of non-standard input.
 ------------------------------------------------------------------------------
 Polarizable Continuum Model (PCM)
 =================================
 Model                : C-PCM.
 Atomic radii         : UFF (Universal Force Field).
 Polarization charges : Total charges.
 Charge compensation  : None.
 Solution method      : On-the-fly selection.
 Cavity type          : Scaled VdW (van der Waals Surface) (Alpha=1.100).
 Cavity algorithm     : GePol (No added spheres)
                        Default sphere list used, NSphG=   84.
                        Lebedev-Laikov grids with approx.  5.0 points / Ang**2.
                        Smoothing algorithm: York/Karplus (Gamma=1.0000).
                        Polarization charges: spherical gaussians, with
                                              point-specific exponents (IZeta= 3).
                        Self-potential: point-specific (ISelfS= 7).
                        Self-field    : sphere-specific E.n sum rule (ISelfD= 2).
 1st derivatives      : Analytical E(r).r(x)/FMM algorithm (CHGder, D1EAlg=3).
                        Cavity 1st derivative terms included.
 Solvent              : Water, Eps=  78.355300 Eps(inf)=   1.777849
 ------------------------------------------------------------------------------
 One-electron integrals computed using PRISM.
 NBasis=   792 RedAO= T EigKep=  3.17D-04  NBF=   792
 NBsUse=   792 1.00D-06 EigRej= -1.00D+00 NBFU=   792
 ExpMin= 1.61D-01 ExpMax= 5.48D+03 ExpMxC= 8.25D+02 IAcc=3 IRadAn=         5 AccDes= 0.00D+00
 Harris functional with IExCor= 4639 and IRadAn=       5 diagonalized for initial guess.
 HarFok:  IExCor= 4639 AccDes= 0.00D+00 IRadAn=         5 IDoV= 1 UseB2=F ITyADJ=14
 ICtDFT=  3500011 ScaDFX=  1.000000  1.000000  1.000000  1.000000
 FoFCou: FMM=F IPFlag=           0 FMFlag=      100000 FMFlg1=        2001
         NFxFlg=           0 DoJE=T BraDBF=F KetDBF=T FulRan=T
         wScrn=  0.000000 ICntrl=       500 IOpCl=  0 I1Cent=   200000004 NGrid=           0
         NMat0=    1 NMatS0=      1 NMatT0=    0 NMatD0=    1 NMtDS0=    0 NMtDT0=    0
 Petite list used in FoFCou.
 Requested convergence on RMS density matrix=1.00D-08 within 128 cycles.
 Requested convergence on MAX density matrix=1.00D-06.
 Requested convergence on             energy=1.00D-06.
 No special actions if energy rises.
 Inv3:  Mode=1 IEnd=    78704652.
 Iteration    1 A*A^-1 deviation from unit magnitude is 3.44D-15 for   1133.
 Iteration    1 A*A^-1 deviation from orthogonality  is 3.55D-15 for   2571   1216.
 Iteration    1 A^-1*A deviation from unit magnitude is 3.66D-15 for   1133.
 Iteration    1 A^-1*A deviation from orthogonality  is 2.83D-15 for   3379   3309.
 Error on total polarization charges =  0.01149
 SCF Done:  E(RwB97XD) =  -2184.19078090     A.U. after   14 cycles
            NFock= 14  Conv=0.58D-08     -V/T= 2.0090

 **********************************************************************

            Population analysis using the SCF density.

 **********************************************************************

 Orbital symmetries:
       Occupied  (A) (A) (A) (A) (A) (A) (A) (A) (A) (A) (A) (A)
                 (A) (A) (A) (A) (A) (A) (A) (A) (A) (A) (A) (A)
                 (A) (A) (A) (A) (A) (A) (A) (A) (A) (A) (A) (A)
                 (A) (A) (A) (A) (A) (A) (A) (A) (A) (A) (A) (A)
                 (A) (A) (A) (A) (A) (A) (A) (A) (A) (A) (A) (A)
                 (A) (A) (A) (A) (A) (A) (A) (A) (A) (A) (A) (A)
                 (A) (A) (A) (A) (A) (A) (A) (A) (A) (A) (A) (A)
                 (A) (A) (A) (A) (A) (A) (A) (A) (A) (A) (A) (A)
                 (A) (A) (A) (A) (A) (A) (A) (A) (A) (A) (A) (A)
                 (A) (A) (A) (A) (A) (A) (A) (A) (A) (A) (A) (A)
                 (A) (A) (A) (A) (A) (A) (A) (A) (A) (A) (A) (A)
                 (A) (A) (A) (A) (A) (A) (A) (A) (A) (A) (A) (A)
                 (A) (A) (A) (A) (A) (A) (A) (A) (A) (A) (A) (A)
                 (A) (A) (A) (A) (A) (A) (A) (A) (A) (A) (A) (A)
                 (A) (A) (A)
       Virtual   (A) (A) (A) (A) (A) (A) (A) (A) (A) (A) (A) (A)
                 (A) (A) (A) (A) (A) (A) (A) (A) (A) (A) (A) (A)
                 (A) (A) (A) (A) (A) (A) (A) (A) (A) (A) (A) (A)
                 (A) (A) (A) (A) (A) (A) (A) (A) (A) (A) (A) (A)
                 (A) (A) (A) (A) (A) (A) (A) (A) (A) (A) (A) (A)
                 (A) (A) (A) (A) (A) (A) (A) (A) (A) (A) (A) (A)
                 (A) (A) (A) (A) (A) (A) (A) (A) (A) (A) (A) (A)
                 (A) (A) (A) (A) (A) (A) (A) (A) (A) (A) (A) (A)
                 (A) (A) (A) (A) (A) (A) (A) (A) (A) (A) (A) (A)
                 (A) (A) (A) (A) (A) (A) (A) (A) (A) (A) (A) (A)
                 (A) (A) (A) (A) (A) (A) (A) (A) (A) (A) (A) (A)
                 (A) (A) (A) (A) (A) (A) (A) (A) (A) (A) (A) (A)
                 (A) (A) (A) (A) (A) (A) (A) (A) (A) (A) (A) (A)
                 (A) (A) (A) (A) (A) (A) (A) (A) (A) (A) (A) (A)
                 (A) (A) (A) (A) (A) (A) (A) (A) (A) (A) (A) (A)
                 (A) (A) (A) (A) (A) (A) (A) (A) (A) (A) (A) (A)
                 (A) (A) (A) (A) (A) (A) (A) (A) (A) (A) (A) (A)
                 (A) (A) (A) (A) (A) (A) (A) (A) (A) (A) (A) (A)
                 (A) (A) (A) (A) (A) (A) (A) (A) (A) (A) (A) (A)
                 (A) (A) (A) (A) (A) (A) (A) (A) (A) (A) (A) (A)
                 (A) (A) (A) (A) (A) (A) (A) (A) (A) (A) (A) (A)
                 (A) (A) (A) (A) (A) (A) (A) (A) (A) (A) (A) (A)
                 (A) (A) (A) (A) (A) (A) (A) (A) (A) (A) (A) (A)
                 (A) (A) (A) (A) (A) (A) (A) (A) (A) (A) (A) (A)
                 (A) (A) (A) (A) (A) (A) (A) (A) (A) (A) (A) (A)
                 (A) (A) (A) (A) (A) (A) (A) (A) (A) (A) (A) (A)
                 (A) (A) (A) (A) (A) (A) (A) (A) (A) (A) (A) (A)
                 (A) (A) (A) (A) (A) (A) (A) (A) (A) (A) (A) (A)
                 (A) (A) (A) (A) (A) (A) (A) (A) (A) (A) (A) (A)
                 (A) (A) (A) (A) (A) (A) (A) (A) (A) (A) (A) (A)
                 (A) (A) (A) (A) (A) (A) (A) (A) (A) (A) (A) (A)
                 (A) (A) (A) (A) (A) (A) (A) (A) (A) (A) (A) (A)
                 (A) (A) (A) (A) (A) (A) (A) (A) (A) (A) (A) (A)
                 (A) (A) (A) (A) (A) (A) (A) (A) (A) (A) (A) (A)
                 (A) (A) (A) (A) (A) (A) (A) (A) (A) (A) (A) (A)
                 (A) (A) (A) (A) (A) (A) (A) (A) (A) (A) (A) (A)
                 (A) (A) (A) (A) (A) (A) (A) (A) (A) (A) (A) (A)
                 (A) (A) (A) (A) (A) (A) (A) (A) (A) (A) (A) (A)
                 (A) (A) (A) (A) (A) (A) (A) (A) (A) (A) (A) (A)
                 (A) (A) (A) (A) (A) (A) (A) (A) (A) (A) (A) (A)
                 (A) (A) (A) (A) (A) (A) (A) (A) (A) (A) (A) (A)
                 (A) (A) (A) (A) (A) (A) (A) (A) (A) (A) (A) (A)
                 (A) (A) (A) (A) (A) (A) (A) (A) (A) (A) (A) (A)
                 (A) (A) (A) (A) (A) (A) (A) (A) (A) (A) (A) (A)
                 (A) (A) (A) (A) (A) (A) (A) (A) (A) (A) (A) (A)
                 (A) (A) (A) (A) (A) (A) (A) (A) (A) (A) (A) (A)
                 (A) (A) (A) (A) (A) (A) (A) (A) (A) (A) (A) (A)
                 (A) (A) (A) (A) (A) (A) (A) (A) (A) (A) (A) (A)
                 (A) (A) (A) (A) (A) (A) (A) (A) (A) (A) (A) (A)
                 (A) (A) (A) (A) (A) (A) (A) (A) (A) (A) (A) (A)
                 (A) (A) (A) (A) (A) (A) (A) (A) (A) (A) (A) (A)
                 (A) (A) (A) (A) (A) (A) (A) (A) (A)
 The electronic state is 1-A.
 Alpha  occ. eigenvalues --  -19.34197 -19.30750 -19.30703 -19.30501 -19.30479
 Alpha  occ. eigenvalues --  -19.30396 -19.29564 -19.29493 -19.27495 -10.39906
 Alpha  occ. eigenvalues --  -10.37712 -10.37296 -10.37134 -10.36716 -10.36691
 Alpha  occ. eigenvalues --  -10.36662 -10.36651 -10.36500 -10.36305 -10.32376
 Alpha  occ. eigenvalues --  -10.32009 -10.31467 -10.31344 -10.31287 -10.31136
 Alpha  occ. eigenvalues --  -10.31067 -10.30967 -10.30794 -10.30638 -10.30561
 Alpha  occ. eigenvalues --  -10.30546 -10.30525 -10.30465 -10.30420 -10.30331
 Alpha  occ. eigenvalues --  -10.30318 -10.30104 -10.29760 -10.29707 -10.29587
 Alpha  occ. eigenvalues --  -10.29479 -10.29471 -10.29434 -10.29415 -10.29335
 Alpha  occ. eigenvalues --  -10.29062 -10.28879 -10.28627  -1.22193  -1.17716
 Alpha  occ. eigenvalues --   -1.16960  -1.16881  -1.16862  -1.16730  -1.16572
 Alpha  occ. eigenvalues --   -1.16115  -1.14367  -0.97167  -0.96425  -0.96018
 Alpha  occ. eigenvalues --   -0.95707  -0.94366  -0.92228  -0.91052  -0.89413
 Alpha  occ. eigenvalues --   -0.88621  -0.88059  -0.86019  -0.85338  -0.84765
 Alpha  occ. eigenvalues --   -0.84349  -0.83716  -0.82504  -0.81665  -0.80996
 Alpha  occ. eigenvalues --   -0.79224  -0.78794  -0.75463  -0.74929  -0.74171
 Alpha  occ. eigenvalues --   -0.73152  -0.72501  -0.72421  -0.71772  -0.70717
 Alpha  occ. eigenvalues --   -0.70347  -0.69834  -0.68632  -0.68464  -0.65618
 Alpha  occ. eigenvalues --   -0.65434  -0.65300  -0.64695  -0.63112  -0.61500
 Alpha  occ. eigenvalues --   -0.61210  -0.59748  -0.59464  -0.59062  -0.58832
 Alpha  occ. eigenvalues --   -0.58772  -0.58271  -0.57874  -0.57446  -0.56987
 Alpha  occ. eigenvalues --   -0.56616  -0.55770  -0.55485  -0.55334  -0.55010
 Alpha  occ. eigenvalues --   -0.54442  -0.53687  -0.53320  -0.52826  -0.52706
 Alpha  occ. eigenvalues --   -0.52333  -0.52041  -0.51657  -0.51111  -0.50952
 Alpha  occ. eigenvalues --   -0.50786  -0.50602  -0.50322  -0.50043  -0.49806
 Alpha  occ. eigenvalues --   -0.49643  -0.49411  -0.49319  -0.48751  -0.48440
 Alpha  occ. eigenvalues --   -0.48182  -0.47841  -0.47501  -0.47066  -0.46857
 Alpha  occ. eigenvalues --   -0.46749  -0.46684  -0.46667  -0.46181  -0.46014
 Alpha  occ. eigenvalues --   -0.45702  -0.45517  -0.45433  -0.45144  -0.44894
 Alpha  occ. eigenvalues --   -0.44242  -0.43856  -0.43601  -0.43033  -0.42665
 Alpha  occ. eigenvalues --   -0.42547  -0.42420  -0.41909  -0.41410  -0.40990
 Alpha  occ. eigenvalues --   -0.40905  -0.40190  -0.39452  -0.38780  -0.36320
 Alpha  occ. eigenvalues --   -0.34149  -0.32825  -0.32196  -0.31794  -0.31394
 Alpha  occ. eigenvalues --   -0.31012  -0.30153  -0.29746  -0.28787  -0.28667
 Alpha  occ. eigenvalues --   -0.26524
 Alpha virt. eigenvalues --    0.01236   0.02233   0.07082   0.07160   0.07248
 Alpha virt. eigenvalues --    0.08370   0.08684   0.09334   0.09452   0.09810
 Alpha virt. eigenvalues --    0.11593   0.15165   0.15533   0.16089   0.16602
 Alpha virt. eigenvalues --    0.17097   0.17283   0.17624   0.17840   0.18636
 Alpha virt. eigenvalues --    0.19485   0.19662   0.19938   0.20535   0.21025
 Alpha virt. eigenvalues --    0.21190   0.21664   0.22077   0.22404   0.22835
 Alpha virt. eigenvalues --    0.23236   0.23464   0.24130   0.24375   0.24434
 Alpha virt. eigenvalues --    0.24872   0.25211   0.25536   0.25807   0.25976
 Alpha virt. eigenvalues --    0.26147   0.26261   0.26317   0.26447   0.26615
 Alpha virt. eigenvalues --    0.26771   0.27245   0.27364   0.28331   0.28949
 Alpha virt. eigenvalues --    0.29325   0.29419   0.29816   0.30475   0.30591
 Alpha virt. eigenvalues --    0.30847   0.31202   0.31680   0.32224   0.32722
 Alpha virt. eigenvalues --    0.33061   0.33390   0.33588   0.33667   0.33986
 Alpha virt. eigenvalues --    0.34615   0.34858   0.35318   0.36123   0.36315
 Alpha virt. eigenvalues --    0.36487   0.36967   0.38070   0.38377   0.39374
 Alpha virt. eigenvalues --    0.39753   0.40022   0.41057   0.41287   0.41845
 Alpha virt. eigenvalues --    0.42435   0.43096   0.43325   0.44978   0.45847
 Alpha virt. eigenvalues --    0.46435   0.46872   0.47445   0.47533   0.47856
 Alpha virt. eigenvalues --    0.48016   0.49118   0.49650   0.50996   0.51187
 Alpha virt. eigenvalues --    0.52140   0.53624   0.54669   0.55098   0.55734
 Alpha virt. eigenvalues --    0.56261   0.56572   0.57645   0.57988   0.58206
 Alpha virt. eigenvalues --    0.58772   0.59192   0.59609   0.59886   0.60332
 Alpha virt. eigenvalues --    0.60719   0.60987   0.61283   0.61949   0.62540
 Alpha virt. eigenvalues --    0.62589   0.62907   0.63176   0.63530   0.63852
 Alpha virt. eigenvalues --    0.64064   0.64119   0.64775   0.65108   0.65688
 Alpha virt. eigenvalues --    0.65888   0.66206   0.66375   0.66934   0.67275
 Alpha virt. eigenvalues --    0.67439   0.67795   0.68178   0.68421   0.68611
 Alpha virt. eigenvalues --    0.69225   0.69579   0.69739   0.69996   0.70346
 Alpha virt. eigenvalues --    0.70530   0.70904   0.71125   0.71727   0.72311
 Alpha virt. eigenvalues --    0.72518   0.72725   0.73315   0.73664   0.73818
 Alpha virt. eigenvalues --    0.74034   0.74187   0.74599   0.74896   0.75192
 Alpha virt. eigenvalues --    0.75622   0.76327   0.76371   0.77181   0.77697
 Alpha virt. eigenvalues --    0.77756   0.78103   0.78571   0.79106   0.80133
 Alpha virt. eigenvalues --    0.80853   0.81167   0.81242   0.82242   0.82491
 Alpha virt. eigenvalues --    0.83026   0.83329   0.83387   0.83998   0.84422
 Alpha virt. eigenvalues --    0.84468   0.85161   0.85632   0.85760   0.86630
 Alpha virt. eigenvalues --    0.86954   0.87269   0.87954   0.88553   0.88868
 Alpha virt. eigenvalues --    0.89462   0.89745   0.90644   0.91279   0.91702
 Alpha virt. eigenvalues --    0.92079   0.92238   0.92413   0.92640   0.92841
 Alpha virt. eigenvalues --    0.92905   0.93308   0.93859   0.93963   0.94111
 Alpha virt. eigenvalues --    0.94516   0.94990   0.95318   0.96081   0.96423
 Alpha virt. eigenvalues --    0.96577   0.96728   0.96824   0.97087   0.97710
 Alpha virt. eigenvalues --    0.97902   0.98354   0.98536   0.99132   1.00025
 Alpha virt. eigenvalues --    1.00205   1.00398   1.00698   1.01067   1.01252
 Alpha virt. eigenvalues --    1.01678   1.01894   1.02160   1.02335   1.02709
 Alpha virt. eigenvalues --    1.03028   1.03375   1.03573   1.04156   1.04468
 Alpha virt. eigenvalues --    1.04589   1.04669   1.05628   1.05927   1.06062
 Alpha virt. eigenvalues --    1.06348   1.06890   1.07304   1.07801   1.08645
 Alpha virt. eigenvalues --    1.08965   1.09267   1.09570   1.09998   1.10562
 Alpha virt. eigenvalues --    1.10884   1.11375   1.12322   1.12542   1.13068
 Alpha virt. eigenvalues --    1.13411   1.13923   1.14583   1.14834   1.15520
 Alpha virt. eigenvalues --    1.15708   1.16356   1.17122   1.17953   1.18019
 Alpha virt. eigenvalues --    1.19268   1.19855   1.20124   1.20989   1.21292
 Alpha virt. eigenvalues --    1.22330   1.22904   1.23639   1.24238   1.25468
 Alpha virt. eigenvalues --    1.25975   1.26459   1.27094   1.27937   1.28455
 Alpha virt. eigenvalues --    1.28966   1.29220   1.29459   1.30489   1.30775
 Alpha virt. eigenvalues --    1.31457   1.31531   1.32317   1.33077   1.33490
 Alpha virt. eigenvalues --    1.33952   1.34484   1.34856   1.35432   1.36404
 Alpha virt. eigenvalues --    1.36841   1.36977   1.37659   1.37837   1.38417
 Alpha virt. eigenvalues --    1.39232   1.39867   1.40047   1.40878   1.41212
 Alpha virt. eigenvalues --    1.41746   1.42212   1.42807   1.43553   1.44343
 Alpha virt. eigenvalues --    1.44592   1.45046   1.45270   1.45616   1.46055
 Alpha virt. eigenvalues --    1.46527   1.47033   1.47532   1.47798   1.48648
 Alpha virt. eigenvalues --    1.48826   1.49343   1.49545   1.50042   1.50941
 Alpha virt. eigenvalues --    1.51878   1.52783   1.53202   1.53686   1.53843
 Alpha virt. eigenvalues --    1.54488   1.54607   1.54898   1.55878   1.55922
 Alpha virt. eigenvalues --    1.56156   1.56603   1.57100   1.57778   1.58155
 Alpha virt. eigenvalues --    1.58532   1.58931   1.60305   1.61555   1.62410
 Alpha virt. eigenvalues --    1.63863   1.65143   1.66707   1.68644   1.70077
 Alpha virt. eigenvalues --    1.70409   1.72255   1.76105   1.76944   1.77877
 Alpha virt. eigenvalues --    1.78504   1.79714   1.80795   1.80856   1.81290
 Alpha virt. eigenvalues --    1.81462   1.81762   1.81960   1.82147   1.82502
 Alpha virt. eigenvalues --    1.82720   1.83737   1.84413   1.85067   1.85584
 Alpha virt. eigenvalues --    1.86049   1.86172   1.86828   1.87063   1.87384
 Alpha virt. eigenvalues --    1.87864   1.88761   1.89078   1.89515   1.90399
 Alpha virt. eigenvalues --    1.90487   1.91175   1.91798   1.92217   1.92744
 Alpha virt. eigenvalues --    1.93224   1.93818   1.94390   1.95158   1.95680
 Alpha virt. eigenvalues --    1.95984   1.96073   1.96209   1.97095   1.97283
 Alpha virt. eigenvalues --    1.97398   1.97923   1.98407   1.98827   1.99807
 Alpha virt. eigenvalues --    2.00035   2.00759   2.01027   2.01295   2.01604
 Alpha virt. eigenvalues --    2.02213   2.02489   2.02722   2.03092   2.03634
 Alpha virt. eigenvalues --    2.04016   2.04408   2.04639   2.04953   2.05665
 Alpha virt. eigenvalues --    2.06351   2.06575   2.07095   2.07859   2.08046
 Alpha virt. eigenvalues --    2.08412   2.09126   2.09656   2.10625   2.10909
 Alpha virt. eigenvalues --    2.11723   2.12369   2.12639   2.12875   2.13598
 Alpha virt. eigenvalues --    2.14137   2.14479   2.14979   2.15850   2.16295
 Alpha virt. eigenvalues --    2.16296   2.17190   2.17552   2.19293   2.19988
 Alpha virt. eigenvalues --    2.20215   2.21545   2.22659   2.23068   2.23307
 Alpha virt. eigenvalues --    2.24066   2.25001   2.25600   2.26036   2.27373
 Alpha virt. eigenvalues --    2.27726   2.28946   2.29314   2.30869   2.31289
 Alpha virt. eigenvalues --    2.31730   2.32660   2.33360   2.33784   2.35055
 Alpha virt. eigenvalues --    2.35731   2.35791   2.36574   2.37219   2.37833
 Alpha virt. eigenvalues --    2.38106   2.38532   2.39106   2.39558   2.40118
 Alpha virt. eigenvalues --    2.40217   2.40752   2.41709   2.42659   2.42867
 Alpha virt. eigenvalues --    2.43539   2.43793   2.44107   2.44628   2.46416
 Alpha virt. eigenvalues --    2.47274   2.48570   2.49160   2.49531   2.50046
 Alpha virt. eigenvalues --    2.50784   2.51079   2.51246   2.51868   2.52131
 Alpha virt. eigenvalues --    2.52518   2.52807   2.53502   2.54099   2.54345
 Alpha virt. eigenvalues --    2.54451   2.55251   2.56488   2.57071   2.57388
 Alpha virt. eigenvalues --    2.58094   2.58488   2.58847   2.59223   2.60468
 Alpha virt. eigenvalues --    2.61511   2.62504   2.63174   2.63666   2.64490
 Alpha virt. eigenvalues --    2.66018   2.66466   2.66903   2.67533   2.68555
 Alpha virt. eigenvalues --    2.69168   2.69520   2.70328   2.70879   2.71538
 Alpha virt. eigenvalues --    2.72502   2.73051   2.74560   2.74989   2.75305
 Alpha virt. eigenvalues --    2.76038   2.76634   2.76646   2.77784   2.79660
 Alpha virt. eigenvalues --    2.80383   2.81262   2.81450   2.83314   2.84000
 Alpha virt. eigenvalues --    2.84867   2.85881   2.86629   2.88152   2.88577
 Alpha virt. eigenvalues --    2.89404   2.91414   2.91637   2.93206   2.93931
 Alpha virt. eigenvalues --    2.95182   2.97456   2.98094   2.98915   2.99650
 Alpha virt. eigenvalues --    3.01681   3.03561   3.04088   3.04764   3.05289
 Alpha virt. eigenvalues --    3.05534   3.06883   3.07672   3.09358   3.10794
 Alpha virt. eigenvalues --    3.11542   3.12638   3.13520   3.14576   3.16531
 Alpha virt. eigenvalues --    3.18107   3.19416   3.20741   3.24785   3.26365
 Alpha virt. eigenvalues --    3.27920   3.32678   3.36524   3.37880   3.53304
 Alpha virt. eigenvalues --    3.54535   3.54631   3.59489   4.03644   4.04856
 Alpha virt. eigenvalues --    4.10513   4.11830   4.12034   4.13098   4.19255
 Alpha virt. eigenvalues --    4.20061   4.22740   4.23465   4.24918   4.25778
 Alpha virt. eigenvalues --    4.26990   4.28025   4.28445   4.30770   4.31233
 Alpha virt. eigenvalues --    4.33238   4.35987   4.37184   4.38406   4.39639
 Alpha virt. eigenvalues --    4.41871   4.42278   4.43586   4.44973   4.46279
 Alpha virt. eigenvalues --    4.47806   4.50665   4.52079   4.56500   4.57063
 Alpha virt. eigenvalues --    4.60984   4.61460   4.63887   4.65374   4.66325
 Alpha virt. eigenvalues --    4.70469   4.71762   4.72408   4.76572   4.81814
 Alpha virt. eigenvalues --    4.86006   4.90817   4.93878   4.94301   5.00180
 Alpha virt. eigenvalues --    5.03513
          Condensed to atoms (all electrons):
 Mulliken charges:
               1
     1  C   -0.301916
     2  C    0.350361
     3  C   -0.267186
     4  C   -0.234271
     5  C    0.080537
     6  C    0.309926
     7  H    0.191872
     8  H    0.186210
     9  H    0.179940
    10  O   -0.682448
    11  H    0.451725
    12  O   -0.679667
    13  H    0.454754
    14  C   -0.199671
    15  H    0.180902
    16  C   -0.205296
    17  H    0.191805
    18  C    0.431878
    19  O   -0.586013
    20  C    0.001703
    21  C   -0.226059
    22  C    0.271377
    23  C   -0.233724
    24  H    0.202807
    25  C    0.032894
    26  C    0.316699
    27  H    0.187033
    28  O   -0.685371
    29  H    0.466171
    30  O   -0.678022
    31  H    0.446475
    32  C    0.066713
    33  C   -0.286581
    34  C   -0.270880
    35  C    0.328854
    36  H    0.187603
    37  C    0.300444
    38  H    0.183847
    39  C   -0.010038
    40  O   -0.698027
    41  H    0.448605
    42  O   -0.684283
    43  H    0.454246
    44  C   -0.204671
    45  H    0.204277
    46  C   -0.275941
    47  H    0.179291
    48  C    0.152547
    49  C   -0.369519
    50  H    0.173346
    51  H    0.198082
    52  C   -0.570532
    53  H    0.183694
    54  H    0.185182
    55  H    0.184518
    56  C    0.052362
    57  C    0.343237
    58  C   -0.301117
    59  C    0.352438
    60  C   -0.257862
    61  C   -0.238050
    62  C   -0.266347
    63  C    0.271559
    64  H    0.204703
    65  H    0.192539
    66  H    0.200083
    67  H    0.211261
    68  O   -0.682358
    69  H    0.452385
    70  O   -0.551614
    71  C   -0.427471
    72  H    0.213150
    73  H    0.188977
    74  C   -0.260582
    75  H    0.166737
    76  C    0.152459
    77  C   -0.557612
    78  H    0.181283
    79  H    0.183415
    80  H    0.176223
    81  C   -0.560478
    82  H    0.181229
    83  H    0.181915
    84  H    0.181331
 Sum of Mulliken charges =  -0.00000
 Mulliken charges with hydrogens summed into heavy atoms:
               1
     1  C   -0.110044
     2  C    0.350361
     3  C   -0.080976
     4  C   -0.054331
     5  C    0.080537
     6  C    0.309926
    10  O   -0.230723
    12  O   -0.224913
    14  C   -0.018769
    16  C   -0.013491
    18  C    0.431878
    19  O   -0.586013
    20  C    0.001703
    21  C   -0.023252
    22  C    0.271377
    23  C   -0.046691
    25  C    0.032894
    26  C    0.316699
    28  O   -0.219200
    30  O   -0.231547
    32  C    0.066713
    33  C   -0.098978
    34  C   -0.087032
    35  C    0.328854
    37  C    0.300444
    39  C   -0.010038
    40  O   -0.249421
    42  O   -0.230037
    44  C   -0.000394
    46  C   -0.096650
    48  C    0.152547
    49  C    0.001908
    52  C   -0.017138
    56  C    0.052362
    57  C    0.343237
    58  C   -0.096414
    59  C    0.352438
    60  C   -0.065323
    61  C   -0.037967
    62  C   -0.055086
    63  C    0.271559
    68  O   -0.229972
    70  O   -0.551614
    71  C   -0.025344
    74  C   -0.093845
    76  C    0.152459
    77  C   -0.016690
    81  C   -0.016003
 Electronic spatial extent (au):  <R**2>=          32441.3097
 Charge=             -0.0000 electrons
 Dipole moment (field-independent basis, Debye):
    X=             -0.3573    Y=              4.3517    Z=             -5.2735  Tot=              6.8465
 Quadrupole moment (field-independent basis, Debye-Ang):
   XX=           -191.1265   YY=           -272.6056   ZZ=           -267.6902
   XY=             24.5231   XZ=             -3.5111   YZ=             -5.6504
 Traceless Quadrupole moment (field-independent basis, Debye-Ang):
   XX=             52.6809   YY=            -28.7982   ZZ=            -23.8828
   XY=             24.5231   XZ=             -3.5111   YZ=             -5.6504
 Octapole moment (field-independent basis, Debye-Ang**2):
  XXX=            214.4159  YYY=             72.6616  ZZZ=            -50.4668  XYY=            -86.8547
  XXY=             -0.7925  XXZ=           -145.3637  XZZ=            -15.6985  YZZ=             11.7206
  YYZ=              3.4513  XYZ=              7.7729
 Hexadecapole moment (field-independent basis, Debye-Ang**3):
 XXXX=         -25710.0624 YYYY=          -5315.9672 ZZZZ=          -3955.0926 XXXY=           1448.4993
 XXXZ=            -84.0328 YYYX=           -137.7214 YYYZ=           -118.0572 ZZZX=             58.2343
[...]
 36,0.00000637,0.00000342,-0.00000658,-0.00001195,0.00000201,-0.0000108
 3,-0.00000769,-0.00001176,0.00001166,-0.00000092,0.00001512,0.00000099
 ,0.00000240,0.00000060,0.00000789,0.00001331,-0.00000936,0.00000041,0.
 00000329,0.00000005,-0.00000176,-0.00001017,-0.00000509,-0.00000730,-0
 .00001599,0.00000644,0.00000587,0.00001004,-0.00000006,-0.00001023,0.0
 0000150,-0.00001549,0.00000233,-0.00000056,0.00000553,0.00000133,0.000
 00836,0.00000208,-0.00000103,-0.00000470,-0.00000171,-0.00000279,0.000
 00229,-0.00000297,-0.00000050,-0.00000257,0.00000119,0.00000153,-0.000
 00016,-0.00000284,-0.00000301,0.00000124,0.00000068,-0.00000312,-0.000
 00195,0.00000067,0.00000285,0.00000049,-0.00000287,-0.00000029,0.00000
 116,-0.00000021,0.00000006,-0.00000093,0.,-0.00000023,-0.00000071,0.00
 000109,-0.00000105,-0.00000078,0.00000062,-0.00000461,0.00000281,-0.00
 000270,-0.00001395,0.00000613,0.00000932,-0.00000184,0.00000010,-0.000
 01013,-0.00001868,0.00001291,-0.00001396,0.00000311,-0.00001197,0.0000
 0191,-0.00000743,-0.00000706,0.00000528,-0.00000011,-0.00002349,-0.000
 01017,0.00000877,0.00001027,-0.00000178,0.00000025,-0.00000083,0.00000
 127,0.00000217,0.00000048,0.00000067,0.00000048,0.00000161,-0.00000114
 ,-0.00000007,0.00000135,0.00000558,0.00002139,-0.00000749,0.00000868,-
 0.00000294,0.00000007,-0.00000037,0.00000962,-0.00000438,-0.00001122,-
 0.00000712,-0.00073665,0.00172080,-0.00029278,-0.00042119,-0.00023383,
 0.00005174,0.00000336,-0.00007566,0.00024355,-0.00202611,-0.00166791,-
 0.00008483,0.00028693,-0.00096709,-0.01430766,0.00079428,-0.00859190,0
 .00019725,0.00072651,0.00070568,0.00008786,0.00003269,0.00003047,0.000
 53225,-0.00025508,-0.00011563,0.00004333,-0.00016112,0.00029837,-0.196
 13601,0.04000424,-0.12666004,-0.01399038,0.00247897,-0.01331808,0.2126
 7317,-0.00000033,-0.00000005,-0.00000058,0.00000191,-0.00000229,0.0000
 0304,-0.00000142,0.00000160,-0.00000287,0.00000087,0.00000243,0.000000
 58,-0.00000227,-0.00000167,0.00000590,0.00000089,-0.00000084,0.0000003
 8,-0.00000017,0.00000033,-0.00000030,-0.00000053,-0.00000017,-0.000000
 52,0.00000071,0.00000014,0.00000062,-0.00000346,0.00000082,-0.00000368
 ,0.00000044,0.00000016,0.00000032,-0.00000354,0.00000289,0.00000008,-0
 .00000065,-0.00000100,-0.00000016,0.00000536,-0.00000646,-0.00000784,0
 .00000077,0.00000054,0.00000047,-0.00000688,-0.00000563,0.00000435,0.0
 0000359,-0.00000031,0.00000216,0.00009170,0.00008466,-0.00006760,-0.00
 005260,-0.00004431,0.00005526,-0.00011550,-0.00004797,0.00004250,-0.00
 000759,0.00003158,-0.00005701,0.00009081,0.00006100,-0.00004945,-0.000
 09755,-0.00001474,0.00000620,-0.00001009,-0.00000054,0.00000049,0.0002
 4032,0.00002698,0.00006702,0.00020890,0.00007981,-0.00002657,-0.000006
 31,0.00000756,-0.00000986,-0.00013688,-0.00006829,0.00008991,0.0000372
 1,0.00002836,-0.00003740,-0.00037293,-0.00000342,-0.00031096,0.0003115
 2,-0.00012370,0.00062397,0.00000215,0.00000453,0.00000389,-0.00000339,
 -0.00001041,0.00000139,-0.00000767,-0.00000686,-0.00001147,0.00000898,
 -0.00000098,0.00001340,0.00000066,0.00000215,0.00000054,0.00000573,0.0
 0001120,-0.00000652,0.00000006,0.00000306,0.00000035,-0.00000076,-0.00
 000885,-0.00000503,-0.00000547,-0.00001401,0.00000378,0.00000504,0.000
 00937,0.00000015,-0.00000816,0.00000104,-0.00001345,0.00000187,-0.0000
 0051,0.00000478,0.00000094,0.00000742,0.00000186,-0.00000078,-0.000004
 33,-0.00000163,-0.00000221,0.00000165,-0.00000261,-0.00000055,-0.00000
 234,0.00000108,0.00000133,0.00000006,-0.00000249,-0.00000279,0.0000011
 6,0.00000069,-0.00000282,-0.00000181,0.00000058,0.00000264,0.00000038,
 -0.00000273,-0.00000025,0.00000099,-0.00000024,0.00000004,-0.00000083,
 0.00000002,-0.00000020,-0.00000060,0.00000092,-0.00000091,-0.00000068,
 0.00000055,-0.00001199,0.00001179,-0.00000154,-0.00003055,0.00000107,0
 .00001696,0.00000279,0.00000333,0.00000339,0.00000306,0.00000271,-0.00
 000604,0.00001249,-0.00000275,0.00000919,-0.00000946,0.00000233,-0.000
 00139,-0.00000737,-0.00002095,-0.00001037,0.00001173,0.00001101,-0.000
 00576,0.00000020,-0.00000013,0.00000040,0.00000068,-0.00000025,0.00000
 014,0.00000034,0.00000050,-0.00000028,0.00000133,0.00000087,0.00000610
 ,0.00000713,-0.00000155,0.00000405,-0.00000043,-0.00000041,-0.00000012
 ,0.00001579,-0.00000326,-0.00001212,-0.00008771,-0.00106926,0.00251129
 ,-0.00048755,-0.00054065,-0.00023591,0.00001017,0.00012673,-0.00007939
 ,-0.00051686,-0.00247227,-0.00161757,-0.00038851,0.00032595,-0.0006489
 4,-0.02393687,0.00587711,-0.01994435,-0.00025503,0.00103616,0.00036453
 ,0.00002706,-0.00003366,0.00006034,0.00042299,-0.00054078,-0.00000155,
 -0.00005079,0.00017635,0.00041426,0.03813127,-0.05766201,0.02862554,0.
 01393023,-0.00360962,0.01423950,-0.03845391,0.06134292,-0.00000033,-0.
 00000009,-0.00000043,0.00000145,-0.00000154,0.00000218,-0.00000101,0.0
 0000110,-0.00000197,0.00000065,0.00000166,0.00000044,-0.00000153,-0.00
 000121,0.00000395,0.00000089,-0.00000022,0.00000032,-0.00000009,0.0000
 0022,-0.00000020,-0.00000037,-0.00000013,-0.00000036,0.00000049,0.0000
 0009,0.00000042,-0.00000248,0.00000056,-0.00000261,0.00000034,0.000000
 11,0.00000024,-0.00000273,0.00000161,0.00000002,-0.00000030,-0.0000006
 3,-0.00000010,0.00000359,-0.00000425,-0.00000510,0.00000050,0.00000036
 ,0.00000030,-0.00000454,-0.00000457,0.00000294,0.00000272,-0.00000010,
 0.00000152,0.00005732,0.00005634,-0.00004617,-0.00003184,-0.00002859,0
 .00003705,-0.00007529,-0.00002413,0.00003544,-0.00000998,0.00001592,-0
 .00003530,0.00004392,0.00006335,-0.00007689,-0.00004673,0.00000296,0.0
 0000695,-0.00000560,-0.00000091,-0.00000067,0.00006520,-0.00010543,-0.
 00000210,0.00008883,0.00002155,0.00001542,-0.00000513,0.00000546,-0.00
 000709,-0.00006532,-0.00005739,0.00006526,0.00002557,0.00001697,-0.000
 02143,-0.00015795,0.00000944,-0.00016997,0.00011271,-0.00006904,0.0003
 3416,0.00000174,0.00000324,0.00000250,-0.00000253,-0.00000688,0.000000
 88,-0.00000492,-0.00000446,-0.00000712,0.00000606,-0.00000018,0.000008
 66,0.00000044,0.00000147,0.00000042,0.00000378,0.00000750,-0.00000459,
 0.00000006,0.00000180,0.00000020,-0.00000046,-0.00000586,-0.00000306,-
 0.00000376,-0.00000932,0.00000275,0.00000339,0.00000616,0.00000009,-0.
 00000538,0.00000023,-0.00000892,0.00000132,-0.00000019,0.00000330,0.00
 000044,0.00000499,0.00000115,-0.00000052,-0.00000293,-0.00000111,-0.00
 000150,0.00000115,-0.00000178,-0.00000034,-0.00000158,0.00000073,0.000
 00089,0.00000003,-0.00000167,-0.00000184,0.00000077,0.00000042,-0.0000
 0189,-0.00000120,0.00000041,0.00000175,0.00000027,-0.00000177,-0.00000
 017,0.00000066,-0.00000014,0.00000004,-0.00000057,0.,-0.00000012,-0.00
 000040,0.00000062,-0.00000063,-0.00000045,0.00000037,-0.00000580,0.000
 00654,-0.00000091,-0.00001486,0.00000120,0.00000946,0.00000173,0.00000
 070,-0.00000126,-0.00000355,0.00000295,-0.00000542,0.00000694,-0.00000
 283,0.00000569,-0.00000631,0.00000187,0.00000069,-0.00000324,-0.000012
 75,-0.00000622,0.00000597,0.00000670,-0.00000368,0.00000006,-0.0000001
 7,0.00000041,0.00000087,-0.00000009,-0.00000020,0.00000008,0.00000047,
 -0.00000028,0.00000063,0.00000064,0.00000364,0.00000809,-0.00000195,0.
 00000380,-0.00000090,-0.00000058,-0.00000047,0.00000856,-0.00000203,-0
 .00000699,-0.00010325,-0.00004640,0.00053691,-0.00013416,-0.00013782,-
 0.00013811,-0.00001328,-0.00000569,-0.00006964,0.00049671,-0.00057590,
 -0.00068785,-0.00003286,0.00001505,0.00013925,-0.00477283,0.00141898,-
 0.00334865,-0.00010182,0.00012043,0.00016769,-0.00008358,0.00004623,-0
 .00000827,0.00021625,-0.00046985,-0.00011054,0.00015241,-0.00004593,0.
 00019643,-0.12624762,0.02963438,-0.15448965,0.01198733,-0.00208553,0.0
 1081040,0.13972871,-0.03274801,0.16409442,-0.00000030,-0.00000007,-0.0
 0000055,0.00000175,-0.00000211,0.00000280,-0.00000129,0.00000149,-0.00
 000261,0.00000082,0.00000219,0.00000056,-0.00000195,-0.00000141,0.0000
 0534,0.00000085,-0.00000077,0.00000038,-0.00000016,0.00000032,-0.00000
 028,-0.00000048,-0.00000016,-0.00000047,0.00000066,0.00000013,0.000000
 57,-0.00000317,0.00000076,-0.00000340,0.00000039,0.00000014,0.00000030
 ,-0.00000331,0.00000270,0.00000006,-0.00000065,-0.00000095,-0.00000012
 ,0.00000481,-0.00000568,-0.00000670,0.00000050,0.00000059,0.00000050,-
 0.00000657,-0.00000813,0.00000457,0.00000444,0.,0.00000228,0.00006645,
 0.00007444,-0.00006473,-0.00003688,-0.00003617,0.00004940,-0.00009349,
 -0.00002110,0.00006364,-0.00002647,0.00001533,-0.00004477,-0.00000485,
 0.00014090,-0.00019719,-0.00003736,0.00001839,0.00001660,-0.00000603,-
 0.00000198,-0.00000238,-0.00007615,-0.00044592,-0.00002825,-0.00003176
 ,-0.00004875,0.00010549,-0.00000948,0.00000866,-0.00001054,-0.00003624
 ,-0.00009030,0.00009241,0.00003379,0.00001702,-0.00002246,-0.00002257,
 0.00005643,-0.00015252,0.00005876,-0.00008851,0.00023027,0.00000594,0.
 00000596,0.00000344,-0.00000590,-0.00001010,0.00000187,-0.00000838,-0.
 00000614,-0.00000945,0.00000997,0.00000020,0.00001252,0.00000078,0.000
 00197,0.00000035,0.00000674,0.00001087,-0.00000773,0.00000032,0.000002
 50,0.00000004,-0.00000112,-0.00000787,-0.00000390,-0.00000601,-0.00001
 276,0.00000526,0.00000474,0.00000793,-0.00000005,-0.00000862,0.0000006
 8,-0.00001341,0.00000191,-0.00000064,0.00000485,0.00000048,0.00000695,
 0.00000150,-0.00000084,-0.00000398,-0.00000147,-0.00000219,0.00000189,
 -0.00000254,-0.00000040,-0.00000213,0.00000102,0.00000121,-0.00000019,
 -0.00000227,-0.00000249,0.00000109,0.00000050,-0.00000251,-0.00000160,
 0.00000061,0.00000224,0.00000039,-0.00000225,-0.00000023,0.00000095,-0
 .00000014,0.00000005,-0.00000074,0.00000001,-0.00000019,-0.00000058,0.
 00000086,-0.00000086,-0.00000062,0.00000051,-0.00000109,0.00000083,-0.
 00000373,-0.00001117,0.00000713,0.00000597,-0.00000149,0.00000196,-0.0
 0000656,-0.00001418,0.00001054,-0.00001136,0.00000252,-0.00001073,0.00
 000078,-0.00000852,-0.00000796,0.00000412,0.00000005,-0.00001767,-0.00
 000673,0.00000624,0.00000579,-0.00000090,0.00000026,-0.00000052,0.0000
 0112,0.00000195,0.00000005,0.00000040,0.00000051,0.00000132,-0.0000014
 5,-0.00000049,0.00000050,0.00000338,0.00001610,-0.00000566,0.00000638,
 -0.00000221,0.00000022,0.00000014,0.00000463,-0.00000326,-0.00001112,-
 0.00077896,0.00053905,-0.00136336,0.00013025,0.00020806,0.00007978,-0.
 00009939,-0.00010462,-0.00006462,0.00024677,-0.00235511,-0.00069522,0.
 00039537,-0.00057751,0.00081013,-0.00966862,-0.00849545,0.01258062,0.0
 0008950,0.00100494,0.00003969,0.00043337,-0.00006721,-0.00020891,0.000
 09342,0.00005645,-0.00005251,-0.00011010,0.00014486,-0.00021457,-0.086
 22883,-0.04288841,0.08632325,-0.00753329,-0.01036211,0.01605036,0.0108
 3542,0.01149000,-0.02107904,0.09243333,-0.00000062,-0.00000017,-0.0000
 0096,0.00000309,-0.00000355,0.00000484,-0.00000227,0.00000249,-0.00000
 450,0.00000146,0.00000380,0.00000096,-0.00000359,-0.00000261,0.0000092
 0,0.00000178,-0.00000081,0.00000067,-0.00000024,0.00000052,-0.00000046
 ,-0.00000083,-0.00000028,-0.00000082,0.00000108,0.00000020,0.00000097,
 -0.00000549,0.00000127,-0.00000582,0.00000071,0.00000026,0.00000052,-0
 .00000610,0.00000411,0.00000011,-0.00000090,-0.00000152,-0.00000024,0.
 00000814,-0.00001023,-0.00001207,0.00000117,0.00000090,0.00000072,-0.0
 0001027,-0.00001283,0.00000811,0.00000723,0.00000009,0.00000390,0.0001
 2437,0.00013616,-0.00011693,-0.00006353,-0.00006699,0.00009115,-0.0001
 7784,-0.00004691,0.00011588,-0.00003250,0.00003424,-0.00008484,0.00002
 268,0.00022931,-0.00032565,-0.00009749,0.00002882,0.00004066,-0.000012
 12,-0.00000528,-0.00000436,-0.00010788,-0.00070931,-0.00003157,0.00009
 249,0.00000290,0.00007907,-0.00001310,0.00001421,-0.00001781,-0.000073
 34,-0.00015744,0.00016504,0.00005543,0.00003017,-0.00003789,-0.0002656
 6,0.00000419,-0.00037450,0.00013861,-0.00008072,0.00059096,0.00000019,
 0.00000628,0.00000525,-0.00000441,-0.00001578,0.00000209,-0.00000982,-
 0.00000984,-0.00001567,0.00001272,0.00000069,0.00001959,0.00000078,0.0
 0000328,0.00000089,0.00000809,0.00001682,-0.00001037,0.00000002,0.0000
 0361,0.00000072,-0.00000044,-0.00001303,-0.00000698,-0.00000789,-0.000
 02086,0.00000589,0.00000736,0.00001402,0.00000015,-0.00001129,-0.00000
 071,-0.00002019,0.00000287,-0.00000045,0.00000765,0.00000015,0.0000115
 1,0.00000239,-0.00000108,-0.00000698,-0.00000269,-0.00000306,0.0000023
 8,-0.00000418,-0.00000088,-0.00000370,0.00000172,0.00000204,0.00000011
 ,-0.00000367,-0.00000436,0.00000191,0.00000089,-0.00000430,-0.00000282
 ,0.00000101,0.00000397,0.00000058,-0.00000400,-0.00000038,0.00000148,-
 0.00000037,0.00000007,-0.00000128,0.00000002,-0.00000030,-0.00000091,0
 .00000141,-0.00000141,-0.00000103,0.00000084,-0.00001234,0.00000911,-0
 .00000409,-0.00003383,0.00000397,0.00001245,0.00000339,0.00000898,0.00
 000723,0.00000471,0.00000541,-0.00000729,0.00001492,-0.00000122,0.0000
 1153,-0.00001333,0.00000276,-0.00000060,-0.00000665,-0.00002331,-0.000
 01086,0.00000756,0.00001327,-0.00000736,0.00000035,-0.00000038,0.00000
 033,0.00000171,-0.00000101,-0.00000072,0.00000038,0.00000030,-0.000002
 48,0.00000115,0.00000077,0.00000766,0.00000876,-0.00000270,0.00000385,
 -0.00000078,-0.00000074,0.,0.00001889,-0.00000351,-0.00001343,-0.00120
 723,0.00103266,-0.00111753,0.00012077,0.00008217,0.00001669,-0.0000237
 6,-0.00006484,-0.00005441,0.00020338,-0.00300015,-0.00168819,0.0000082
 4,-0.00020174,0.00066106,-0.01254701,-0.01246422,0.02350705,-0.0001707
 7,0.00091437,0.00044999,0.00041858,-0.00051276,-0.00066251,-0.00003449
 ,0.00003880,-0.00001512,-0.00006144,0.00043521,-0.00029971,-0.04328188
 ,-0.09981510,0.09347556,0.00741776,0.01065325,-0.01791602,-0.00225315,
 -0.00295958,0.00498568,0.05184300,0.10646994,0.00000010,0.00000003,0.0
 0000010,-0.00000038,0.00000035,-0.00000054,0.00000022,-0.00000027,0.00
 000042,-0.00000014,-0.00000034,-0.00000011,0.00000026,0.00000028,-0.00
 000074,-0.00000020,0.00000005,-0.00000010,0.00000002,-0.00000005,0.000
 00004,0.00000008,0.00000003,0.00000007,-0.00000012,-0.00000003,-0.0000
 0009,0.00000059,-0.00000014,0.00000063,-0.00000009,-0.00000002,-0.0000
 0007,0.00000052,-0.00000029,0.00000005,0.00000005,0.00000014,0.,-0.000
 00074,0.00000058,0.00000082,-0.00000004,-0.00000004,-0.00000006,0.0000
 0102,-0.00000080,-0.00000039,-0.00000013,0.00000021,-0.00000024,-0.000
 01744,-0.00001019,0.00000752,0.00000648,0.00000674,-0.00000805,0.00001
 152,0.00001055,0.00000041,-0.00000798,-0.00001262,0.00001554,-0.000042
 93,0.00001510,-0.00002832,0.00004511,0.00000765,-0.00001691,0.00000234
 ,0.00000198,0.00000012,-0.00012434,-0.00012001,-0.00002627,-0.00010212
 ,-0.00006475,0.00008372,-0.00000191,0.00000017,0.00000035,0.00002277,0
 .00000172,-0.00000709,-0.00000199,-0.00000330,0.00000420,0.00015837,0.
 00008047,0.00004217,-0.00014176,-0.00006377,-0.00010598,-0.00000321,-0
 .00000157,-0.00000025,0.00000202,0.00000167,-0.00000031,0.00000222,0.0
 0000114,0.00000112,-0.00000214,0.00000075,-0.00000230,-0.00000026,-0.0
 0000032,-0.00000008,-0.00000122,-0.00000167,0.00000147,-0.00000020,-0.
 00000049,0.00000011,0.00000091,0.00000169,0.00000090,0.00000126,0.0000
 0203,-0.00000109,-0.00000090,-0.00000119,-0.00000005,0.00000195,-0.000
 00084,0.00000227,-0.00000038,0.00000017,-0.00000076,-0.00000094,-0.000
 00092,-0.00000046,0.00000020,0.00000039,0.00000012,0.00000058,-0.00000
 041,0.00000033,0.,0.00000027,-0.00000013,-0.00000018,0.00000008,0.0000
 0042,0.00000030,-0.00000010,-0.00000014,0.00000039,0.00000021,-0.00000
 007,-0.00000034,-0.00000008,0.00000036,0.00000003,-0.00000016,-0.00000
 002,-0.00000002,0.00000011,0.,0.00000002,0.00000010,-0.00000012,0.0000
 0015,0.00000009,-0.00000008,-0.00000243,0.00000336,0.00000063,-0.00000
 416,-0.00000338,0.00000043,0.00000209,0.00000178,0.00000687,0.00001083
 ,-0.00000506,0.00000438,0.00000260,0.00000598,0.00000203,0.00000134,0.
 00000614,-0.00000238,-0.00000115,0.00000438,0.00000172,-0.00000129,0.0
 0000034,0.00000058,-0.00000009,0.00000033,-0.00000051,-0.00000106,-0.0
 0000008,-0.00000024,0.00000003,-0.00000038,0.00000099,0.00000047,-0.00
 000036,-0.00000101,-0.00000854,0.00000289,-0.00000294,0.00000135,0.000
 00008,0.00000007,0.00000176,0.00000165,0.00000145,-0.00044853,0.000444
 74,-0.00064013,0.00010954,0.00010243,0.00002543,0.00006798,0.00000551,
 0.00001584,-0.00060027,-0.00062936,-0.00017432,-0.00012632,-0.00008082
 ,0.00026198,-0.00353263,-0.00523604,0.01016758,-0.00008228,0.00014324,
 0.00045440,-0.00008420,0.00013758,-0.00008759,0.00001236,-0.00001230,-
 0.00006833,-0.00011373,0.00013650,0.00016659,0.08503020,0.09209684,-0.
 22260692,0.00332410,0.00569779,-0.00987309,0.00884905,0.00874134,-0.01
 721921,-0.09221439,-0.10141548,0.23960325\\0.00000027,0.00000922,-0.00
 000714,-0.00000479,-0.00000996,0.00000194,-0.00000603,-0.00000165,-0.0
 0000304,0.00000481,0.00000554,0.00000295,0.00000095,-0.00000367,-0.000
 00509,-0.00000712,-0.00000508,-0.00001344,0.00000031,-0.00000319,0.000
 00154,0.00000300,0.00000133,-0.00000178,0.00000090,-0.00000137,0.00000
 091,0.00000825,0.00000219,0.00000395,-0.00000177,-0.00000462,0.0000001
 1,-0.00000434,-0.00000027,0.00000938,0.00000021,0.00000018,-0.00000721
 ,0.00000487,-0.00000130,0.00000492,0.00000176,0.00000144,0.00000022,-0
 .00000350,-0.00001796,-0.00000921,-0.00000176,-0.00000446,0.00001217,-
 0.00000730,-0.00000256,-0.00002272,-0.00000467,-0.00000195,0.00001836,
 0.00002056,0.00000227,0.00000735,-0.00001168,0.00000198,-0.00000560,-0
 .00001493,0.00000454,-0.00000033,0.00000195,0.00001173,-0.00000540,0.0
 0000238,-0.00000183,-0.00000005,0.00000278,-0.00000745,0.00000489,-0.0
 0000574,-0.00001628,0.00001672,0.00000093,-0.00000272,0.00000004,0.000
 01311,0.00000594,-0.00000445,-0.00000541,-0.00000181,-0.00000412,0.000
 00441,-0.00000171,-0.00002334,0.00000415,0.00000479,0.00000844,-0.0000
 0145,-0.00000514,0.00001033,-0.00000870,0.00000810,-0.00001405,0.00000
 260,0.00000324,-0.00000809,0.00001522,0.00000355,-0.00000186,-0.000000
 71,-0.00000430,0.00000180,-0.00000826,-0.00000839,0.00000319,-0.000000
 22,0.00000103,0.00000183,-0.00001164,-0.00000762,0.00000745,0.00001314
 ,-0.00000154,0.00000075,0.00000105,0.00000534,0.00000042,-0.00000037,-
 0.00000974,0.00000740,0.00000277,0.00000352,-0.00000053,0.00001833,0.0
 0003166,-0.00000419,-0.00000606,-0.00000486,0.00000210,-0.00001350,0.0
 0000604,0.00000737,-0.00000079,-0.00000295,-0.00000042,-0.00000165,-0.
 00001207,-0.00000651,0.00000098,0.00000822,-0.00000100,0.00000574,0.00
 000320,-0.00000142,0.00000035,-0.00000156,0.00000527,0.00000626,-0.000
 00323,0.00000426,0.00000018,0.00000294,0.00000063,-0.00000234,0.000000
 38,0.00000108,-0.00000020,0.00000209,-0.00000033,0.00000571,-0.0000019
 4,-0.00000230,-0.00000105,-0.00000196,0.00000227,0.00000122,-0.0000033
 4,0.00000170,0.00000271,0.00000674,-0.00000498,0.00001021,-0.00000149,
 0.00000345,-0.00001096,-0.00000314,0.00000021,0.00000112,-0.00000461,0
 .00000063,0.00000136,-0.00000284,0.00000227,0.00000090,0.00000129,0.00
 000061,-0.00000320,-0.00000207,-0.00000026,0.00000135,-0.00000056,-0.0
 0000045,-0.00000065,0.00000253,-0.00000053,-0.00000864,-0.00000640,0.0
 0000262,0.00000347,0.00000546,0.00000098,0.00000055,0.00000882,0.00000
 309,-0.00000883,0.00000088,0.00000013,0.00000295,-0.00000417,-0.000003
 68,-0.00000458,0.00000413,-0.00000363,-0.00000946,0.00001257,0.0000115
 7,0.00000207,0.00000172,-0.00000251,0.00001058,0.00000684,-0.00000366,
 -0.00000136,-0.00001402,-0.00000204,0.00000298,0.00000700,0.00000316,-
 0.00000207,-0.00000178,-0.00000009,0.00000093,0.00000749,0.00000407,-0
 .00000404,0.00000421,-0.00000380,0.00000010,-0.00000121,-0.00000090,0.
 00000038,0.00000122,-0.00000277,-0.00000102,-0.00000059,-0.00000157\\\
 @


 EVERYBODY NEEDS BEAUTY AS WELL AS BREAD, PLACES TO PLAY IN AND PRAY IN,
 WHERE NATURE MAY HEAL AND CHEER AND GIVE STRENGTH TO BODY AND SOUL ALIKE.

                                    -- JOHN MUIR
 Job cpu time:       1 days 13 hours 24 minutes 45.6 seconds.
 Elapsed time:       0 days  2 hours 41 minutes 31.7 seconds.
 File lengths (MBytes):  RWF=   5985 Int=      0 D2E=      0 Chk=     77 Scr=      2
 Normal termination of Gaussian 16 at Tue Jul 11 18:40:40 2023.
