 Entering Gaussian System, Link 0=g16
 Input=MaDA-2-energy-conf-1.com
 Output=MaDA-2-energy-conf-1.log
 Initial command:
 /public/home/zhoujunsu/g16/l1.exe "/public/home/zhoujunsu/g16/scratch/Gau-444492.inp" -scrdir="/public/home/zhoujunsu/g16/scratch/"
 Entering Link 1 = /public/home/zhoujunsu/g16/l1.exe PID=    444493.
  
 Copyright (c) 1988,1990,1992,1993,1995,1998,2003,2009,2016,
            Gaussian, Inc.  All Rights Reserved.
  
 This is part of the Gaussian(R) 16 program.  It is based on
 the Gaussian(R) 09 system (copyright 2009, Gaussian, Inc.),
 the Gaussian(R) 03 system (copyright 2003, Gaussian, Inc.),
 the Gaussian(R) 98 system (copyright 1998, Gaussian, Inc.),
 the Gaussian(R) 94 system (copyright 1995, Gaussian, Inc.),
 the Gaussian 92(TM) system (copyright 1992, Gaussian, Inc.),
 the Gaussian 90(TM) system (copyright 1990, Gaussian, Inc.),
 the Gaussian 88(TM) system (copyright 1988, Gaussian, Inc.),
 the Gaussian 86(TM) system (copyright 1986, Carnegie Mellon
 University), and the Gaussian 82(TM) system (copyright 1983,
 Carnegie Mellon University). Gaussian is a federally registered
 trademark of Gaussian, Inc.
  
 This software contains proprietary and confidential information,
 including trade secrets, belonging to Gaussian, Inc.
  
 This software is provided under written license and may be
 used, copied, transmitted, or stored only in accord with that
 written license.
  
 The following legend is applicable only to US Government
 contracts under FAR:
  
                    RESTRICTED RIGHTS LEGEND
  
 Use, reproduction and disclosure by the US Government is
 subject to restrictions as set forth in subparagraphs (a)
 and (c) of the Commercial Computer Software - Restricted
 Rights clause in FAR 52.227-19.
  
 Gaussian, Inc.
 340 Quinnipiac St., Bldg. 40, Wallingford CT 06492
  
  
 ---------------------------------------------------------------
 Warning -- This program may not be used in any manner that
 competes with the business of Gaussian, Inc. or will provide
 assistance to any competitor of Gaussian, Inc.  The licensee
 of this program is prohibited from giving any competitor of
 Gaussian, Inc. access to this program.  By using this program,
 the user acknowledges that Gaussian, Inc. is engaged in the
 business of creating and licensing software in the field of
 computational chemistry and represents and warrants to the
 licensee that it is not a competitor of Gaussian, Inc. and that
 it will not use this program in any manner prohibited above.
 ---------------------------------------------------------------
  

 Cite this work as:
 Gaussian 16, Revision A.03,
 M. J. Frisch, G. W. Trucks, H. B. Schlegel, G. E. Scuseria, 
 M. A. Robb, J. R. Cheeseman, G. Scalmani, V. Barone, 
 G. A. Petersson, H. Nakatsuji, X. Li, M. Caricato, A. V. Marenich, 
 J. Bloino, B. G. Janesko, R. Gomperts, B. Mennucci, H. P. Hratchian, 
 J. V. Ortiz, A. F. Izmaylov, J. L. Sonnenberg, D. Williams-Young, 
 F. Ding, F. Lipparini, F. Egidi, J. Goings, B. Peng, A. Petrone, 
 T. Henderson, D. Ranasinghe, V. G. Zakrzewski, J. Gao, N. Rega, 
 G. Zheng, W. Liang, M. Hada, M. Ehara, K. Toyota, R. Fukuda, 
 J. Hasegawa, M. Ishida, T. Nakajima, Y. Honda, O. Kitao, H. Nakai, 
 T. Vreven, K. Throssell, J. A. Montgomery, Jr., J. E. Peralta, 
 F. Ogliaro, M. J. Bearpark, J. J. Heyd, E. N. Brothers, K. N. Kudin, 
 V. N. Staroverov, T. A. Keith, R. Kobayashi, J. Normand, 
 K. Raghavachari, A. P. Rendell, J. C. Burant, S. S. Iyengar, 
 J. Tomasi, M. Cossi, J. M. Millam, M. Klene, C. Adamo, R. Cammi, 
 J. W. Ochterski, R. L. Martin, K. Morokuma, O. Farkas, 
 J. B. Foresman, and D. J. Fox, Gaussian, Inc., Wallingford CT, 2016.
 
 ******************************************
 Gaussian 16:  ES64L-G16RevA.03 25-Dec-2016
                11-Jul-2023 
 ******************************************
 %mem=28gb
 %nproc=14
 Will use up to   14 processors via shared memory.
 %chk=MaDA-2-conf-1.chk
 ----------------------------------------------------------------------
 # wb97xd/6-311++G(d,p) integral(ultrafinegrid) guess=read geom=check s
 crf=(cpcm,read,solvent=water)
 ----------------------------------------------------------------------
 1/29=2,38=1,40=2,172=1/1;
 2/12=2,40=1/2;
 3/5=4,6=6,7=1111,11=2,14=-4,25=1,30=1,70=2103,72=1,74=-58,75=-5,116=-2/1,2,3;
 4/5=1/1;
 5/5=2,38=6,53=1/2;
 6/7=2,8=2,9=2,10=2,28=1/1;
 99/5=1,9=1/99;
 ----------------------------------------------------------------------
 Candidate Structure: MaDA-TS-1, Conformer: 1, Single-point energies ca
 lculated with wB97X-D/6-311++G(d,p)
 ----------------------------------------------------------------------
 Structure from the checkpoint file:  "MaDA-2-conf-1.chk"
 Charge =  0 Multiplicity = 1
 Redundant internal coordinates found in file.  (old form).
 C,0,6.7336474619,0.503693481,0.0940193889
 C,0,6.9444908948,-0.8680668162,0.2129365606
 C,0,5.8576230168,-1.7504443557,0.2606951141
 C,0,4.5749082442,-1.2394156112,0.1867432648
 C,0,4.3178206613,0.1352616724,0.0646003042
 C,0,5.4351932819,0.9996206162,0.0217916155
 H,0,7.5890056059,1.1716620091,0.0581682359
 H,0,6.0212232444,-2.8193806058,0.3572747955
 H,0,3.7418284463,-1.9335637443,0.230654031
 O,0,8.2270695226,-1.2887328682,0.2792072806
 H,0,8.2517894328,-2.251903052,0.3596614596
 O,0,5.1944021598,2.3262162489,-0.0954675438
 H,0,6.0298145404,2.8118659843,-0.107763862
 C,0,2.9768104448,0.6941132214,-0.0123744081
 H,0,2.9143722666,1.7783351131,-0.045482223
 C,0,1.8112375899,0.0191363522,-0.049844905
 H,0,1.7923868454,-1.0628336085,-0.0279117695
 C,0,0.538459775,0.7528814157,-0.1154844435
 O,0,0.5453876395,2.0015023733,-0.0646859598
 C,0,-0.7345232325,0.0236645139,-0.2303750761
 C,0,-0.8032557247,-1.3770274059,-0.3637280342
 C,0,-1.9615356205,0.7435398878,-0.2149172698
 C,0,-2.0054129647,-2.0382551449,-0.4544576183
 H,0,0.10430659,-1.9671565899,-0.4011395845
 C,0,-3.201427576,0.0884677819,-0.3024845351
 C,0,-3.2023656613,-1.3052149224,-0.414734328
 H,0,-2.0526186006,-3.1170926432,-0.5509113056
 O,0,-1.9805167434,2.0800469216,-0.1228395547
 H,0,-1.0279642823,2.3638606786,-0.0865723805
 O,0,-4.3452613286,-2.017150883,-0.5106548238
 H,0,-5.0990867466,-1.4579113428,-0.2475154247
 C,0,-4.4921998983,0.8838765741,-0.3224146437
 H,0,-4.2498817537,1.9282226389,-0.1061654497
 H,0,-4.909495664,0.8703962409,-1.3357472765
 C,0,-5.5036740991,0.3977590178,0.6883927108
 H,0,-5.1120493954,0.301104033,1.7016274299
 C,0,-6.7945565231,0.088964109,0.4876043657
 C,0,-7.5097354287,0.170011751,-0.8362862564
 H,0,-7.9930888031,-0.7872433841,-1.0654825096
 H,0,-8.3072555848,0.9212615988,-0.7833725554
 H,0,-6.8581704318,0.4312998031,-1.6722891468
 C,0,-7.6615180668,-0.3647278895,1.634563537
 H,0,-7.1065303908,-0.4095629035,2.5757674692
 H,0,-8.51060066,0.3175058539,1.7663537949
 H,0,-8.0826184834,-1.3572431207,1.4324285296
 Recover connectivity data from disk.
                           ----------------------------
                           !    Current Parameters    !
                           ! (Angstroms and Degrees)  !
 --------------------------                            --------------------------
 ! Name  Definition              Value                                          !
 --------------------------------------------------------------------------------
 ! R1    R(1,2)                  1.393                                          !
 ! R2    R(1,6)                  1.3918                                         !
 ! R3    R(1,7)                  1.0859                                         !
 ! R4    R(2,3)                  1.4008                                         !
 ! R5    R(2,10)                 1.3514                                         !
 ! R6    R(3,4)                  1.3827                                         !
 ! R7    R(3,8)                  1.0857                                         !
 ! R8    R(4,5)                  1.4038                                         !
 ! R9    R(4,9)                  1.0853                                         !
 ! R10   R(5,6)                  1.4133                                         !
 ! R11   R(5,14)                 1.4548                                         !
 ! R12   R(6,12)                 1.3534                                         !
 ! R13   R(10,11)                0.9668                                         !
 ! R14   R(12,13)                0.9664                                         !
 ! R15   R(14,15)                1.0865                                         !
 ! R16   R(14,16)                1.3474                                         !
 ! R17   R(16,17)                1.0824                                         !
 ! R18   R(16,18)                1.4706                                         !
 ! R19   R(18,19)                1.2497                                         !
 ! R20   R(18,20)                1.4715                                         !
 ! R21   R(20,21)                1.4087                                         !
 ! R22   R(20,22)                1.4227                                         !
 ! R23   R(21,23)                1.375                                          !
 ! R24   R(21,24)                1.0832                                         !
 ! R25   R(22,25)                1.405                                          !
 ! R26   R(22,28)                1.3398                                         !
 ! R27   R(23,26)                1.4041                                         !
 ! R28   R(23,27)                1.0842                                         !
 ! R29   R(25,26)                1.3982                                         !
 ! R30   R(25,32)                1.5163                                         !
 ! R31   R(26,30)                1.3499                                         !
 ! R32   R(28,29)                0.9946                                         !
 ! R33   R(30,31)                0.9748                                         !
 ! R34   R(32,33)                1.0937                                         !
 ! R35   R(32,34)                1.096                                          !
 ! R36   R(32,35)                1.5103                                         !
 ! R37   R(35,36)                1.0906                                         !
 ! R38   R(35,37)                1.3424                                         !
 ! R39   R(37,38)                1.5069                                         !
 ! R40   R(37,42)                1.5076                                         !
 ! R41   R(38,39)                1.0966                                         !
 ! R42   R(38,40)                1.0969                                         !
 ! R43   R(38,41)                1.0917                                         !
 ! R44   R(42,43)                1.0936                                         !
 ! R45   R(42,44)                1.0972                                         !
 ! R46   R(42,45)                1.0969                                         !
 ! A1    A(2,1,6)              119.7712                                         !
 ! A2    A(2,1,7)              119.2995                                         !
 ! A3    A(6,1,7)              120.9293                                         !
 ! A4    A(1,2,3)              120.3848                                         !
 ! A5    A(1,2,10)             117.0249                                         !
 ! A6    A(3,2,10)             122.5902                                         !
 ! A7    A(2,3,4)              119.0223                                         !
 ! A8    A(2,3,8)              120.4188                                         !
 ! A9    A(4,3,8)              120.5586                                         !
 ! A10   A(3,4,5)              122.4415                                         !
 ! A11   A(3,4,9)              118.265                                          !
 ! A12   A(5,4,9)              119.2927                                         !
 ! A13   A(4,5,6)              117.1763                                         !
 ! A14   A(4,5,14)             123.337                                          !
 ! A15   A(6,5,14)             119.4862                                         !
 ! A16   A(1,6,5)              121.2037                                         !
 ! A17   A(1,6,12)             121.3157                                         !
 ! A18   A(5,6,12)             117.4804                                         !
 ! A19   A(2,10,11)            109.7818                                         !
 ! A20   A(6,12,13)            109.8705                                         !
 ! A21   A(5,14,15)            115.9701                                         !
 ! A22   A(5,14,16)            127.3297                                         !
 ! A23   A(15,14,16)           116.7                                            !
 ! A24   A(14,16,17)           121.0149                                         !
 ! A25   A(14,16,18)           119.9985                                         !
 ! A26   A(17,16,18)           118.986                                          !
 ! A27   A(16,18,19)           119.4663                                         !
 ! A28   A(16,18,20)           120.3271                                         !
 ! A29   A(19,18,20)           120.2051                                         !
 ! A30   A(18,20,21)           122.8421                                         !
 ! A31   A(18,20,22)           119.6365                                         !
 ! A32   A(21,20,22)           117.5207                                         !
 ! A33   A(20,21,23)           121.8071                                         !
 ! A34   A(20,21,24)           120.2712                                         !
 ! A35   A(23,21,24)           117.9214                                         !
 ! A36   A(20,22,25)           121.6349                                         !
 ! A37   A(20,22,28)           121.1793                                         !
 ! A38   A(25,22,28)           117.185                                          !
 ! A39   A(21,23,26)           119.4963                                         !
 ! A40   A(21,23,27)           121.4977                                         !
 ! A41   A(26,23,27)           119.0052                                         !
 ! A42   A(22,25,26)           118.0553                                         !
 ! A43   A(22,25,32)           120.4946                                         !
 ! A44   A(26,25,32)           121.4163                                         !
 ! A45   A(23,26,25)           121.4711                                         !
 ! A46   A(23,26,30)           116.3835                                         !
 ! A47   A(25,26,30)           122.1383                                         !
 ! A48   A(22,28,29)           105.878                                          !
 ! A49   A(26,30,31)           109.4494                                         !
 ! A50   A(25,32,33)           108.0413                                         !
 ! A51   A(25,32,34)           109.258                                          !
 ! A52   A(25,32,35)           113.1074                                         !
 ! A53   A(33,32,34)           106.1959                                         !
 ! A54   A(33,32,35)           108.8681                                         !
 ! A55   A(34,32,35)           111.0906                                         !
 ! A56   A(32,35,36)           114.1944                                         !
 ! A57   A(32,35,37)           128.1653                                         !
 ! A58   A(36,35,37)           117.6388                                         !
 ! A59   A(35,37,38)           125.1294                                         !
 ! A60   A(35,37,42)           120.5579                                         !
 ! A61   A(38,37,42)           114.3079                                         !
 ! A62   A(37,38,39)           110.235                                          !
 ! A63   A(37,38,40)           109.8477                                         !
 ! A64   A(37,38,41)           113.7289                                         !
 ! A65   A(39,38,40)           106.7064                                         !
 ! A66   A(39,38,41)           108.1775                                         !
 ! A67   A(40,38,41)           107.8767                                         !
 ! A68   A(37,42,43)           112.0411                                         !
 ! A69   A(37,42,44)           110.4435                                         !
 ! A70   A(37,42,45)           110.6616                                         !
 ! A71   A(43,42,44)           108.3525                                         !
 ! A72   A(43,42,45)           108.4409                                         !
 ! A73   A(44,42,45)           106.7187                                         !
 ! D1    D(6,1,2,3)             -0.024                                          !
 ! D2    D(6,1,2,10)          -179.9682                                         !
 ! D3    D(7,1,2,3)           -179.9721                                         !
 ! D4    D(7,1,2,10)             0.0837                                         !
 ! D5    D(2,1,6,5)             -0.1047                                         !
 ! D6    D(2,1,6,12)          -179.9321                                         !
 ! D7    D(7,1,6,5)            179.8425                                         !
 ! D8    D(7,1,6,12)             0.0151                                         !
 ! D9    D(1,2,3,4)              0.0636                                         !
 ! D10   D(1,2,3,8)           -179.7603                                         !
 ! D11   D(10,2,3,4)          -179.9954                                         !
 ! D12   D(10,2,3,8)             0.1807                                         !
 ! D13   D(1,2,10,11)         -179.9984                                         !
 ! D14   D(3,2,10,11)            0.0587                                         !
 ! D15   D(2,3,4,5)              0.0252                                         !
 ! D16   D(2,3,4,9)           -179.6531                                         !
 ! D17   D(8,3,4,5)            179.8489                                         !
 ! D18   D(8,3,4,9)              0.1706                                         !
 ! D19   D(3,4,5,6)             -0.1469                                         !
 ! D20   D(3,4,5,14)          -179.8867                                         !
 ! D21   D(9,4,5,6)            179.5282                                         !
 ! D22   D(9,4,5,14)            -0.2116                                         !
 ! D23   D(4,5,6,1)              0.186                                          !
 ! D24   D(4,5,6,12)          -179.9802                                         !
 ! D25   D(14,5,6,1)           179.9362                                         !
 ! D26   D(14,5,6,12)           -0.2299                                         !
 ! D27   D(4,5,14,15)          176.4844                                         !
 ! D28   D(4,5,14,16)           -3.6731                                         !
 ! D29   D(6,5,14,15)           -3.2496                                         !
 ! D30   D(6,5,14,16)          176.5928                                         !
 ! D31   D(1,6,12,13)           -0.5609                                         !
 ! D32   D(5,6,12,13)          179.6054                                         !
 ! D33   D(5,14,16,17)          -0.285                                          !
 ! D34   D(5,14,16,18)         179.4351                                         !
 ! D35   D(15,14,16,17)        179.5564                                         !
 ! D36   D(15,14,16,18)         -0.7234                                         !
 ! D37   D(14,16,18,19)         -3.7639                                         !
 ! D38   D(14,16,18,20)        176.671                                          !
 ! D39   D(17,16,18,19)        175.9619                                         !
 ! D40   D(17,16,18,20)         -3.6032                                         !
 ! D41   D(16,18,20,21)         -3.9284                                         !
 ! D42   D(16,18,20,22)        176.38                                           !
 ! D43   D(19,18,20,21)        176.5098                                         !
 ! D44   D(19,18,20,22)         -3.1819                                         !
 ! D45   D(18,20,21,23)        179.258                                          !
 ! D46   D(18,20,21,24)         -0.9534                                         !
 ! D47   D(22,20,21,23)         -1.0442                                         !
 ! D48   D(22,20,21,24)        178.7444                                         !
 ! D49   D(18,20,22,25)       -179.0731                                         !
 ! D50   D(18,20,22,28)          1.2798                                         !
 ! D51   D(21,20,22,25)          1.219                                          !
 ! D52   D(21,20,22,28)       -178.428                                          !
 ! D53   D(20,21,23,26)          0.0367                                         !
 ! D54   D(20,21,23,27)       -179.6224                                         !
 ! D55   D(24,21,23,26)       -179.7566                                         !
 ! D56   D(24,21,23,27)          0.5842                                         !
 ! D57   D(20,22,25,26)         -0.3795                                         !
 ! D58   D(20,22,25,32)       -178.2935                                         !
 ! D59   D(28,22,25,26)        179.2811                                         !
 ! D60   D(28,22,25,32)          1.3671                                         !
 ! D61   D(20,22,28,29)          0.6046                                         !
 ! D62   D(25,22,28,29)       -179.0575                                         !
 ! D63   D(21,23,26,25)          0.863                                          !
 ! D64   D(21,23,26,30)        179.9115                                         !
 ! D65   D(27,23,26,25)       -179.4693                                         !
 ! D66   D(27,23,26,30)         -0.4208                                         !
 ! D67   D(22,25,26,23)         -0.6822                                         !
 ! D68   D(22,25,26,30)       -179.6755                                         !
 ! D69   D(32,25,26,23)        177.2116                                         !
 ! D70   D(32,25,26,30)         -1.7817                                         !
 ! D71   D(22,25,32,33)         -8.5507                                         !
 ! D72   D(22,25,32,34)        106.5701                                         !
 ! D73   D(22,25,32,35)       -129.132                                          !
 ! D74   D(26,25,32,33)        173.6065                                         !
 ! D75   D(26,25,32,34)        -71.2727                                         !
 ! D76   D(26,25,32,35)         53.0252                                         !
 ! D77   D(23,26,30,31)        165.6522                                         !
 ! D78   D(25,26,30,31)        -15.3063                                         !
 ! D79   D(25,32,35,36)         51.2415                                         !
 ! D80   D(25,32,35,37)       -129.2333                                         !
 ! D81   D(33,32,35,36)        -68.8685                                         !
 ! D82   D(33,32,35,37)        110.6567                                         !
 ! D83   D(34,32,35,36)        174.5333                                         !
 ! D84   D(34,32,35,37)         -5.9415                                         !
 ! D85   D(32,35,37,38)          0.0588                                         !
 ! D86   D(32,35,37,42)       -179.0975                                         !
 ! D87   D(36,35,37,38)        179.5699                                         !
 ! D88   D(36,35,37,42)          0.4136                                         !
 ! D89   D(35,37,38,39)        126.5421                                         !
 ! D90   D(35,37,38,40)       -116.1493                                         !
 ! D91   D(35,37,38,41)          4.8589                                         !
 ! D92   D(42,37,38,39)        -54.2551                                         !
 ! D93   D(42,37,38,40)         63.0535                                         !
 ! D94   D(42,37,38,41)       -175.9382                                         !
 ! D95   D(35,37,42,43)         -0.7152                                         !
 ! D96   D(35,37,42,44)        120.1779                                         !
 ! D97   D(35,37,42,45)       -121.8733                                         !
 ! D98   D(38,37,42,43)       -179.9581                                         !
 ! D99   D(38,37,42,44)        -59.065                                          !
 ! D100  D(38,37,42,45)         58.8838                                         !
 --------------------------------------------------------------------------------
                          Input orientation:                          
 ---------------------------------------------------------------------
 Center     Atomic      Atomic             Coordinates (Angstroms)
 Number     Number       Type             X           Y           Z
 ---------------------------------------------------------------------
      1          6           0        6.733647    0.503693    0.094019
      2          6           0        6.944491   -0.868067    0.212937
      3          6           0        5.857623   -1.750444    0.260695
      4          6           0        4.574908   -1.239416    0.186743
      5          6           0        4.317821    0.135262    0.064600
      6          6           0        5.435193    0.999621    0.021792
      7          1           0        7.589006    1.171662    0.058168
      8          1           0        6.021223   -2.819381    0.357275
      9          1           0        3.741828   -1.933564    0.230654
     10          8           0        8.227070   -1.288733    0.279207
     11          1           0        8.251789   -2.251903    0.359661
     12          8           0        5.194402    2.326216   -0.095468
     13          1           0        6.029815    2.811866   -0.107764
     14          6           0        2.976810    0.694113   -0.012374
     15          1           0        2.914372    1.778335   -0.045482
     16          6           0        1.811238    0.019136   -0.049845
     17          1           0        1.792387   -1.062834   -0.027912
     18          6           0        0.538460    0.752881   -0.115484
     19          8           0        0.545388    2.001502   -0.064686
     20          6           0       -0.734523    0.023665   -0.230375
     21          6           0       -0.803256   -1.377027   -0.363728
     22          6           0       -1.961536    0.743540   -0.214917
     23          6           0       -2.005413   -2.038255   -0.454458
     24          1           0        0.104307   -1.967157   -0.401140
     25          6           0       -3.201428    0.088468   -0.302485
     26          6           0       -3.202366   -1.305215   -0.414734
     27          1           0       -2.052619   -3.117093   -0.550911
     28          8           0       -1.980517    2.080047   -0.122840
     29          1           0       -1.027964    2.363861   -0.086572
     30          8           0       -4.345261   -2.017151   -0.510655
     31          1           0       -5.099087   -1.457911   -0.247515
     32          6           0       -4.492200    0.883877   -0.322415
     33          1           0       -4.249882    1.928223   -0.106165
     34          1           0       -4.909496    0.870396   -1.335747
     35          6           0       -5.503674    0.397759    0.688393
     36          1           0       -5.112049    0.301104    1.701627
     37          6           0       -6.794557    0.088964    0.487604
     38          6           0       -7.509735    0.170012   -0.836286
     39          1           0       -7.993089   -0.787243   -1.065483
     40          1           0       -8.307256    0.921262   -0.783373
     41          1           0       -6.858170    0.431300   -1.672289
     42          6           0       -7.661518   -0.364728    1.634564
     43          1           0       -7.106530   -0.409563    2.575767
     44          1           0       -8.510601    0.317506    1.766354
     45          1           0       -8.082618   -1.357243    1.432429
 ---------------------------------------------------------------------
                    Distance matrix (angstroms):
                    1          2          3          4          5
     1  C    0.000000
     2  C    1.392955   0.000000
     3  C    2.424116   1.400769   0.000000
     4  C    2.776181   2.398647   1.382742   0.000000
     5  C    2.443937   2.815683   2.442403   1.403834   0.000000
     6  C    1.391813   2.408894   2.792558   2.404284   1.413319
     7  H    1.085866   2.144725   3.402559   3.861944   3.431445
     8  H    3.408764   2.163535   1.085688   2.148766   3.423032
     9  H    3.861330   3.375299   2.123917   1.085261   2.153922
    10  O    2.340384   1.351429   2.414083   3.653664   4.166058
    11  H    3.157314   1.909335   2.448119   3.817655   4.611044
    12  O    2.393067   3.655321   4.145585   3.630034   2.365227
    13  H    2.421520   3.805442   4.580403   4.314669   3.181956
    14  C    3.763164   4.270089   3.788075   2.516366   1.454836
    15  H    4.028776   4.828258   4.605296   3.452264   2.163672
    16  C    4.948294   5.215982   4.427311   3.045949   2.511880
    17  H    5.185068   5.161407   4.133068   2.796370   2.796749
    18  C    6.203736   6.616084   5.890811   4.511486   3.833726
    19  O    6.368923   7.018549   6.511745   5.177239   4.210798
    20  C    7.490610   7.743318   6.844341   5.473520   5.062178
    21  C    7.781488   7.785831   6.700496   5.408013   5.356856
    22  C    8.703975   9.060775   8.221034   6.842408   6.314938
    23  C    9.117758   9.050720   7.900735   6.659573   6.706480
    24  H    7.092140   6.955085   5.795312   4.567438   4.731889
    25  C    9.951650  10.203934   9.260948   7.904051   7.528349
    26  C   10.112138  10.175646   9.096034   7.800775   7.671893
    27  H    9.524941   9.305351   8.068355   6.927764   7.179078
    28  O    8.858249   9.405311   8.732479   7.354473   6.594420
    29  H    7.983449   8.607851   8.028662   6.667119   5.793697
    30  O   11.378159  11.371125  10.235476   8.981128   8.944987
    31  H   11.999089  12.066801  10.972390   9.686202   9.555823
    32  C   11.240000  11.582478  10.695723   9.326310   8.850235
    33  H   11.077331  11.542748  10.762380   9.380653   8.754964
    34  H   11.736332  12.080467  11.195905   9.834795   9.361878
    35  C   12.252206  12.521389  11.570513  10.223004   9.844784
    36  H   11.956002  12.204234  11.252504   9.924980   9.572346
    37  C   13.540281  13.775078  12.787203  11.450757  11.120522
    38  C   14.277632  14.529389  13.549088  12.209492  11.861867
    39  H   14.828612  14.992404  13.947355  12.638318  12.397040
    40  H   15.072257  15.388635  14.452400  13.098084  12.677910
    41  H   13.706298  13.991279  13.045606  11.703101  11.314027
    42  C   14.503387  14.683660  13.659242  12.352789  12.092119
    43  H   14.090551  14.255679  13.237326  11.952075  11.709765
    44  H   15.336834  15.578143  14.594152  13.272141  12.942085
    45  H   14.992537  15.084445  13.994924  12.719222  12.564610
                    6          7          8          9         10
     6  C    0.000000
     7  H    2.160979   0.000000
     8  H    3.878241   4.298352   0.000000
     9  H    3.393329   4.947014   2.448744   0.000000
    10  O    3.619033   2.551377   2.686026   4.531617   0.000000
    11  H    4.315064   3.500140   2.301622   4.523022   0.966841
    12  O    1.353361   2.662842   5.231231   4.512433   4.733425
    13  H    1.911699   2.269114   5.650422   5.279063   4.668253
    14  C    2.477529   4.637389   4.663660   2.747545   5.619779
    15  H    2.639216   4.714975   5.563607   3.813021   6.143051
    16  C    3.754935   5.892587   5.093810   2.760235   6.556043
    17  H    4.186434   6.212984   4.595311   2.150663   6.445967
    18  C    4.904867   7.065106   6.560888   4.195041   7.964841
    19  O    4.992138   7.093397   7.307786   5.078307   8.363740
    20  C    6.251518   8.407276   7.353118   4.907241   9.071505
    21  C    6.686952   8.780881   7.012399   4.617447   9.053615
    22  C    7.404945   9.564032   8.760493   6.316152  10.401056
    23  C    8.050970  10.130115   8.105304   5.788879  10.286095
    24  H    6.115471   8.129198   6.025893   3.692134   8.179389
    25  C    8.690603  10.850660   9.692686   7.251321  11.525866
    26  C    8.950433  11.082069   9.378875   7.002370  11.450494
    27  H    8.564032  10.570019   8.130213   5.965501  10.473967
    28  O    7.495398   9.614244   9.394825   6.998519  10.756632
    29  H    6.606459   8.700256   8.760938   6.428018   9.956449
    30  O   10.248985  12.366035  10.433642   8.121425  12.618161
    31  H   10.820492  12.961319  11.219655   8.866604  13.337635
    32  C    9.934033  12.090624  11.167281   8.720268  12.917507
    33  H    9.730332  11.864175  11.324757   8.882245  12.890757
    34  H   10.434184  12.579598  11.660248   9.228283  13.410416
    35  C   10.975674  13.130665  11.970083   9.545884  13.839979
    36  H   10.702995  12.836496  11.640209   9.249252  13.508625
    37  C   12.272451  14.430645  13.142285  10.731824  15.086110
    38  C   12.999836  15.158342  13.908555  11.496133  15.843588
    39  H   13.590210  15.744890  14.232173  11.861800  16.283526
    40  H   13.766239  15.920490  14.852568  12.424118  16.715174
    41  H   12.422548  14.569266  13.437442  11.026049  15.307884
    42  C   13.265984  15.408569  13.959735  11.596056  15.973040
    43  H   12.876468  14.993244  13.530220  11.203081  15.529534
    44  H   14.071032  16.212489  14.933167  12.551801  16.880202
    45  H   13.794054  15.933730  14.220132  11.899326  16.350552
                   11         12         13         14         15
    11  H    0.000000
    12  O    5.523942   0.000000
    13  H    5.549542   0.966396   0.000000
    14  C    6.053332   2.754701   3.716828   0.000000
    15  H    6.700372   2.345466   3.282993   1.086523   0.000000
    16  C    6.841493   4.095180   5.059554   1.347426   2.076465
    17  H    6.579360   4.802492   5.742427   2.118953   3.054734
    18  C    8.291559   4.914629   5.864679   2.441237   2.588709
    19  O    8.812500   4.660442   5.544140   2.761127   2.379550
    20  C    9.288712   6.361769   7.317470   3.777701   4.053084
    21  C    9.125927   7.053926   8.018927   4.324578   4.886548
    22  C   10.659026   7.329842   8.255370   4.942745   4.987383
    23  C   10.291678   8.427029   9.391951   5.699458   6.240025
    24  H    8.187880   6.666000   7.618187   3.935070   4.695921
    25  C   11.708627   8.691394   9.626559   6.214628   6.350174
    26  C   11.519270   9.153957  10.113246   6.507029   6.859964
    27  H   10.380680   9.075040  10.033676   6.333283   6.992258
    28  O   11.121991   7.179193   8.043705   5.148602   4.904789
    29  H   10.373921   6.222487   7.072015   4.339560   3.985793
    30  O   12.629262  10.490110  11.450936   7.823808   8.205143
    31  H   13.388240  10.968074  11.920695   8.361018   8.644630
    32  C   13.141827   9.796025  10.699346   7.477851   7.465525
    33  H   13.190232   9.452672  10.317606   7.331910   7.166079
    34  H   13.632410  10.283310  11.177914   7.998513   7.981356
    35  C   14.012193  10.898726  11.810298   8.514547   8.562013
    36  H   13.671536  10.656152  11.563691   8.277796   8.346140
    37  C   15.227887  12.209848  13.123763   9.802846   9.869217
    38  C   15.991299  12.907097  13.814107  10.531911  10.577055
    39  H   16.372915  13.584715  14.509053  11.119449  11.251458
    40  H   16.899038  13.591978  14.476961  11.312656  11.278475
    41  H   15.480287  12.302097  13.199053   9.977537   9.998180
    42  C   16.075452  13.247976  14.162593  10.817004  10.920839
    43  H   15.626367  12.881495  13.789217  10.468541  10.586611
    44  H   17.016415  13.975994  14.871376  11.630405  11.659622
    45  H   16.394027  13.862958  14.795757  11.340480  11.530389
                   16         17         18         19         20
    16  C    0.000000
    17  H    1.082356   0.000000
    18  C    1.470596   2.208353   0.000000
    19  O    2.352099   3.308552   1.249673   0.000000
    20  C    2.552158   2.758033   1.471544   2.361666   0.000000
    21  C    2.980498   2.636067   2.529493   3.650031   1.408703
    22  C    3.845234   4.170119   2.501989   2.808862   1.422680
    23  C    4.354698   3.944195   3.791653   4.793553   2.432465
    24  H    2.642420   1.951080   2.769241   4.007244   2.167064
    25  C    5.019507   5.132160   3.803048   4.213653   2.468809
    26  C    5.198391   5.015569   4.280080   5.010246   2.808942
    27  H    5.001638   4.390624   4.677604   5.760735   3.421180
    28  O    4.316258   4.911365   2.847221   2.527794   2.406818
    29  H    3.682411   4.438474   2.247170   1.614688   2.362902
    30  O    6.500868   6.230127   5.628496   6.345621   4.157032
    31  H    7.069181   6.906281   6.056977   6.622768   4.609206
    32  C    6.368312   6.585776   5.036618   5.166507   3.855978
    33  H    6.354915   6.742518   4.930490   4.796009   4.000064
    34  H    6.895393   7.096692   5.584180   5.714083   4.401045
    35  C    7.361812   7.475221   6.105711   6.303195   4.871230
    36  H    7.146962   7.247266   5.952668   6.165859   4.792947
    37  C    8.622843   8.679170   7.387667   7.605104   6.102767
    38  C    9.355308   9.418219   8.101403   8.296670   6.803826
    39  H    9.889721   9.844188   8.721342   9.037935   7.351309
    40  H   10.185077  10.320375   8.872492   8.947219   7.645768
    41  H    8.829544   8.931324   7.565527   7.737092   6.304311
    42  C    9.629002   9.624318   8.458803   8.708605   7.184156
    43  H    9.306138   9.294979   8.187795   8.446128   6.976002
    44  H   10.484653  10.548757   9.252911   9.391458   8.033720
    45  H   10.098512   9.986741   9.009531   9.378967   7.659395
                   21         22         23         24         25
    21  C    0.000000
    22  C    2.420860   0.000000
    23  C    1.375004   2.792434   0.000000
    24  H    1.083200   3.413247   2.111590   0.000000
    25  C    2.811166   1.405034   2.444688   3.893996   0.000000
    26  C    2.400726   2.403535   1.404144   3.372304   1.398196
    27  H    2.150296   3.876296   1.084169   2.448900   3.414249
    28  O    3.659964   1.339810   4.131707   4.561118   2.342922
    29  H    3.757865   1.874425   4.524309   4.487616   3.154041
    30  O    3.602381   3.659375   2.340618   4.451196   2.405269
    31  H    4.298164   3.832972   3.154432   5.230510   2.448555
    32  C    4.326858   2.536831   3.839323   5.409479   1.516300
    33  H    4.782285   2.579114   4.570765   5.849782   2.126616
    34  H    4.780893   3.156394   4.203644   5.836387   2.143954
    35  C    5.133299   3.671822   4.413400   6.182989   2.525438
    36  H    5.064338   3.714112   4.446627   6.064405   2.777077
    37  C    6.226523   4.927484   5.324325   7.253400   3.678969
    38  C    6.898805   5.612268   5.943046   7.920257   4.342017
    39  H    7.248035   6.280636   6.147410   8.209833   4.930421
    40  H    7.859278   6.373609   6.969946   8.901878   5.195602
    41  H    6.453245   5.118443   5.579522   7.472918   3.919906
    42  C    7.214824   6.094148   6.257494   8.186568   4.883641
    43  H    7.021958   5.965613   6.152747   7.955139   4.876699
    44  H    8.173852   6.855450   7.266298   9.172477   5.702620
    45  H    7.497712   6.677926   6.399730   8.411879   5.378292
                   26         27         28         29         30
    26  C    0.000000
    27  H    2.150201   0.000000
    28  O    3.610833   5.215238   0.000000
    29  H    4.277596   5.595210   0.994596   0.000000
    30  O    1.349913   2.543168   4.746520   5.511585   0.000000
    31  H    1.910191   3.482226   4.717857   5.586223   0.974805
    32  C    2.542502   4.691644   2.789123   3.774507   2.910839
    33  H    3.412861   5.520957   2.274499   3.251295   3.967201
    34  H    2.914763   4.967674   3.393128   4.342483   3.055661
    35  C    3.068066   5.079354   3.987584   4.949556   2.934523
    36  H    3.272024   5.110589   4.037303   4.912471   3.294915
    37  C    3.957497   5.817499   5.245191   6.225626   3.381019
    38  C    4.572465   6.377038   5.893174   6.883923   3.860520
    39  H    4.862386   6.401732   6.727626   7.707184   3.889364
    40  H    5.581487   7.448680   6.465811   7.453503   4.940247
    41  H    4.238141   6.077985   5.376864   6.343547   3.695811
    42  C    4.996817   6.619031   6.429554   7.376418   4.281358
    43  H    4.998779   6.530610   6.305288   7.192280   4.442403
    44  H    5.963868   7.672791   7.022649   7.975635   5.290127
    45  H    5.218389   6.587231   7.174222   8.119244   4.263671
                   31         32         33         34         35
    31  H    0.000000
    32  C    2.420308   0.000000
    33  H    3.493856   1.093682   0.000000
    34  H    2.577054   1.095975   1.750988   0.000000
    35  C    2.117340   1.510338   2.132050   2.161846   0.000000
    36  H    2.625540   2.195583   2.580497   3.096896   1.090576
    37  C    2.409947   2.566878   3.195435   2.736549   1.342404
    38  C    2.967829   3.143118   3.775053   2.738840   2.529980
    39  H    3.081252   3.949812   4.722885   3.511319   3.267644
    40  H    4.029883   3.842984   4.234957   3.442743   3.209395
    41  H    2.948470   2.761305   3.390677   2.025685   2.721875
    42  C    3.362042   3.928531   4.463969   4.233427   2.476473
    43  H    3.619363   4.111833   4.562724   4.665319   2.604439
    44  H    4.341221   4.564129   4.924882   4.785047   3.195317
    45  H    3.425465   4.581833   5.277445   4.763810   3.206957
                   36         37         38         39         40
    36  H    0.000000
    37  C    2.085590   0.000000
    38  C    3.493865   1.506896   0.000000
    39  H    4.140264   2.148557   1.096585   0.000000
    40  H    4.095017   2.143912   1.096911   1.759908   0.000000
    41  H    3.801211   2.187780   1.091654   1.772315   1.769204
    42  C    2.635834   1.507639   2.532604   2.752945   2.813745
    43  H    2.290660   2.169397   3.484335   3.766607   3.807448
    44  H    3.399207   2.152264   2.792350   3.083437   2.628112
    45  H    3.412750   2.154834   2.794239   2.563684   3.186192
                   41         42         43         44         45
    41  H    0.000000
    42  C    3.494897   0.000000
    43  H    4.337594   1.093566   0.000000
    44  H    3.816771   1.097157   1.776286   0.000000
    45  H    3.786480   1.096937   1.777096   1.760528   0.000000
 Stoichiometry    C20H20O5
 Framework group  C1[X(C20H20O5)]
 Deg. of freedom   129
 Full point group                 C1      NOp   1
 Largest Abelian subgroup         C1      NOp   1
 Largest concise Abelian subgroup C1      NOp   1
                         Standard orientation:                         
 ---------------------------------------------------------------------
 Center     Atomic      Atomic             Coordinates (Angstroms)
 Number     Number       Type             X           Y           Z
 ---------------------------------------------------------------------
      1          6           0        6.732956    0.499985    0.093638
      2          6           0        6.943166   -0.872833    0.200898
      3          6           0        5.855871   -1.755016    0.242055
      4          6           0        4.573371   -1.242721    0.173328
      5          6           0        4.316916    0.133065    0.062900
      6          6           0        5.434710    0.997173    0.026520
      7          1           0        7.588638    1.167787    0.062760
      8          1           0        6.018981   -2.824809    0.329551
      9          1           0        3.739959   -1.936781    0.212029
     10          8           0        8.225572   -1.294705    0.262701
     11          1           0        8.249845   -2.258528    0.335061
     12          8           0        5.194529    2.324830   -0.079439
     13          1           0        6.030187    2.810132   -0.088276
     14          6           0        2.976143    0.693238   -0.008405
     15          1           0        2.914249    1.777731   -0.032378
     16          6           0        1.810189    0.019203   -0.050679
     17          1           0        1.790787   -1.062903   -0.037802
     18          6           0        0.537749    0.754132   -0.109233
     19          8           0        0.545369    2.002280   -0.047976
     20          6           0       -0.735700    0.026564   -0.229300
     21          6           0       -0.805264   -1.372925   -0.374339
     22          6           0       -1.962323    0.746920   -0.206910
     23          6           0       -2.007833   -2.032746   -0.469727
     24          1           0        0.101961   -1.963190   -0.417360
     25          6           0       -3.202621    0.093248   -0.299057
     26          6           0       -3.204372   -1.299444   -0.422984
     27          1           0       -2.055675   -3.110712   -0.575186
     28          8           0       -1.980536    2.082618   -0.103619
     29          1           0       -1.027808    2.365624   -0.065672
     30          8           0       -4.347711   -2.009958   -0.524032
     31          1           0       -5.101051   -1.452553   -0.255662
     32          6           0       -4.492990    0.889465   -0.311374
     33          1           0       -4.249967    1.931836   -0.086557
     34          1           0       -4.911031    0.884696   -1.324479
     35          6           0       -5.503983    0.395416    0.696063
     36          1           0       -5.111672    0.290068    1.708165
     37          6           0       -6.795174    0.088984    0.493639
     38          6           0       -7.511273    0.181497   -0.829002
     39          1           0       -7.995295   -0.773552   -1.065860
     40          1           0       -8.308361    0.932691   -0.769209
     41          1           0       -6.860180    0.449446   -1.663262
     42          6           0       -7.661538   -0.373856    1.637389
     43          1           0       -7.105889   -0.426867    2.577778
     44          1           0       -8.510166    0.307689    1.775515
     45          1           0       -8.083306   -1.364424    1.427251
 ---------------------------------------------------------------------
 Rotational constants (GHZ):           0.7591623           0.0625854           0.0590164
 Standard basis: 6-311++G(d,p) (5D, 7F)
 There are   715 symmetry adapted cartesian basis functions of A   symmetry.
 There are   690 symmetry adapted basis functions of A   symmetry.
   690 basis functions,  1080 primitive gaussians,   715 cartesian basis functions
    90 alpha electrons       90 beta electrons
       nuclear repulsion energy      1972.8972421857 Hartrees.
 NAtoms=   45 NActive=   45 NUniq=   45 SFac= 1.00D+00 NAtFMM=   60 NAOKFM=F Big=F
 Integral buffers will be    131072 words long.
 Raffenetti 2 integral format.
 Two-electron integral symmetry is turned on.
 Nuclear repulsion after empirical dispersion term =     1972.8675212950 Hartrees.
 Using the following non-standard input for PCM:
 --- end of non-standard input.
 ------------------------------------------------------------------------------
 Polarizable Continuum Model (PCM)
 =================================
 Model                : C-PCM.
 Atomic radii         : UFF (Universal Force Field).
 Polarization charges : Total charges.
 Charge compensation  : None.
 Solution method      : On-the-fly selection.
 Cavity type          : Scaled VdW (van der Waals Surface) (Alpha=1.100).
 Cavity algorithm     : GePol (No added spheres)
                        Default sphere list used, NSphG=   45.
                        Lebedev-Laikov grids with approx.  5.0 points / Ang**2.
                        Smoothing algorithm: York/Karplus (Gamma=1.0000).
                        Polarization charges: spherical gaussians, with
                                              point-specific exponents (IZeta= 3).
                        Self-potential: point-specific (ISelfS= 7).
                        Self-field    : sphere-specific E.n sum rule (ISelfD= 2).
 Solvent              : Water, Eps=  78.355300 Eps(inf)=   1.777849
 ------------------------------------------------------------------------------
 One-electron integrals computed using PRISM.
 NBasis=   690 RedAO= T EigKep=  1.23D-06  NBF=   690
 NBsUse=   682 1.00D-06 EigRej=  9.24D-07 NBFU=   682
 Initial guess from the checkpoint file:  "MaDA-2-conf-1.chk"
 B after Tr=     0.000000   -0.000000   -0.000000
         Rot=    1.000000   -0.000000   -0.000000   -0.000000 Ang=   0.00 deg.
 Requested convergence on RMS density matrix=1.00D-08 within 128 cycles.
 Requested convergence on MAX density matrix=1.00D-06.
 Requested convergence on             energy=1.00D-06.
 No special actions if energy rises.
 Inv3:  Mode=1 IEnd=    33587148.
 Iteration    1 A*A^-1 deviation from unit magnitude is 3.11D-15 for   1458.
 Iteration    1 A*A^-1 deviation from orthogonality  is 2.05D-15 for   3178   2622.
 Iteration    1 A^-1*A deviation from unit magnitude is 3.11D-15 for   1458.
 Iteration    1 A^-1*A deviation from orthogonality  is 1.67D-15 for   3047    372.
 Error on total polarization charges =  0.01922
 SCF Done:  E(RwB97XD) =  -1150.24101427     A.U. after   15 cycles
            NFock= 15  Conv=0.41D-08     -V/T= 2.0041

 **********************************************************************

            Population analysis using the SCF density.

 **********************************************************************

 Orbital symmetries:
       Occupied  (A) (A) (A) (A) (A) (A) (A) (A) (A) (A) (A) (A)
                 (A) (A) (A) (A) (A) (A) (A) (A) (A) (A) (A) (A)
                 (A) (A) (A) (A) (A) (A) (A) (A) (A) (A) (A) (A)
                 (A) (A) (A) (A) (A) (A) (A) (A) (A) (A) (A) (A)
                 (A) (A) (A) (A) (A) (A) (A) (A) (A) (A) (A) (A)
                 (A) (A) (A) (A) (A) (A) (A) (A) (A) (A) (A) (A)
                 (A) (A) (A) (A) (A) (A) (A) (A) (A) (A) (A) (A)
                 (A) (A) (A) (A) (A) (A)
       Virtual   (A) (A) (A) (A) (A) (A) (A) (A) (A) (A) (A) (A)
                 (A) (A) (A) (A) (A) (A) (A) (A) (A) (A) (A) (A)
                 (A) (A) (A) (A) (A) (A) (A) (A) (A) (A) (A) (A)
                 (A) (A) (A) (A) (A) (A) (A) (A) (A) (A) (A) (A)
                 (A) (A) (A) (A) (A) (A) (A) (A) (A) (A) (A) (A)
                 (A) (A) (A) (A) (A) (A) (A) (A) (A) (A) (A) (A)
                 (A) (A) (A) (A) (A) (A) (A) (A) (A) (A) (A) (A)
                 (A) (A) (A) (A) (A) (A) (A) (A) (A) (A) (A) (A)
                 (A) (A) (A) (A) (A) (A) (A) (A) (A) (A) (A) (A)
                 (A) (A) (A) (A) (A) (A) (A) (A) (A) (A) (A) (A)
                 (A) (A) (A) (A) (A) (A) (A) (A) (A) (A) (A) (A)
                 (A) (A) (A) (A) (A) (A) (A) (A) (A) (A) (A) (A)
                 (A) (A) (A) (A) (A) (A) (A) (A) (A) (A) (A) (A)
                 (A) (A) (A) (A) (A) (A) (A) (A) (A) (A) (A) (A)
                 (A) (A) (A) (A) (A) (A) (A) (A) (A) (A) (A) (A)
                 (A) (A) (A) (A) (A) (A) (A) (A) (A) (A) (A) (A)
                 (A) (A) (A) (A) (A) (A) (A) (A) (A) (A) (A) (A)
                 (A) (A) (A) (A) (A) (A) (A) (A) (A) (A) (A) (A)
                 (A) (A) (A) (A) (A) (A) (A) (A) (A) (A) (A) (A)
                 (A) (A) (A) (A) (A) (A) (A) (A) (A) (A) (A) (A)
                 (A) (A) (A) (A) (A) (A) (A) (A) (A) (A) (A) (A)
                 (A) (A) (A) (A) (A) (A) (A) (A) (A) (A) (A) (A)
                 (A) (A) (A) (A) (A) (A) (A) (A) (A) (A) (A) (A)
                 (A) (A) (A) (A) (A) (A) (A) (A) (A) (A) (A) (A)
                 (A) (A) (A) (A) (A) (A) (A) (A) (A) (A) (A) (A)
                 (A) (A) (A) (A) (A) (A) (A) (A) (A) (A) (A) (A)
                 (A) (A) (A) (A) (A) (A) (A) (A) (A) (A) (A) (A)
                 (A) (A) (A) (A) (A) (A) (A) (A) (A) (A) (A) (A)
                 (A) (A) (A) (A) (A) (A) (A) (A) (A) (A) (A) (A)
                 (A) (A) (A) (A) (A) (A) (A) (A) (A) (A) (A) (A)
                 (A) (A) (A) (A) (A) (A) (A) (A) (A) (A) (A) (A)
                 (A) (A) (A) (A) (A) (A) (A) (A) (A) (A) (A) (A)
                 (A) (A) (A) (A) (A) (A) (A) (A) (A) (A) (A) (A)
                 (A) (A) (A) (A) (A) (A) (A) (A) (A) (A) (A) (A)
                 (A) (A) (A) (A) (A) (A) (A) (A) (A) (A) (A) (A)
                 (A) (A) (A) (A) (A) (A) (A) (A) (A) (A) (A) (A)
                 (A) (A) (A) (A) (A) (A) (A) (A) (A) (A) (A) (A)
                 (A) (A) (A) (A) (A) (A) (A) (A) (A) (A) (A) (A)
                 (A) (A) (A) (A) (A) (A) (A) (A) (A) (A) (A) (A)
                 (A) (A) (A) (A) (A) (A) (A) (A) (A) (A) (A) (A)
                 (A) (A) (A) (A) (A) (A) (A) (A) (A) (A) (A) (A)
                 (A) (A) (A) (A) (A) (A) (A) (A) (A) (A) (A) (A)
                 (A) (A) (A) (A) (A) (A) (A) (A) (A) (A) (A) (A)
                 (A) (A) (A) (A) (A) (A) (A) (A) (A) (A) (A) (A)
                 (A) (A) (A) (A) (A) (A) (A) (A) (A) (A) (A) (A)
                 (A) (A) (A) (A) (A) (A) (A) (A) (A) (A) (A) (A)
                 (A) (A) (A) (A) (A) (A) (A) (A) (A) (A) (A) (A)
                 (A) (A) (A) (A) (A) (A) (A) (A) (A) (A) (A) (A)
                 (A) (A) (A) (A) (A) (A) (A) (A) (A) (A) (A) (A)
                 (A) (A) (A) (A)
 The electronic state is 1-A.
 Alpha  occ. eigenvalues --  -19.29713 -19.29694 -19.28882 -19.27613 -19.24595
 Alpha  occ. eigenvalues --  -10.39299 -10.37524 -10.37444 -10.37297 -10.36993
 Alpha  occ. eigenvalues --  -10.31765 -10.31114 -10.31024 -10.30664 -10.30655
 Alpha  occ. eigenvalues --  -10.30433 -10.30229 -10.29766 -10.29692 -10.29658
 Alpha  occ. eigenvalues --  -10.29517 -10.28968 -10.28880 -10.28079 -10.27841
 Alpha  occ. eigenvalues --   -1.19024  -1.18792  -1.18445  -1.18166  -1.14618
 Alpha  occ. eigenvalues --   -0.97668  -0.97081  -0.93244  -0.91653  -0.89332
 Alpha  occ. eigenvalues --   -0.86832  -0.86281  -0.84600  -0.82646  -0.79562
 Alpha  occ. eigenvalues --   -0.76983  -0.75751  -0.74695  -0.73834  -0.71531
 Alpha  occ. eigenvalues --   -0.70322  -0.67639  -0.66107  -0.64488  -0.62734
 Alpha  occ. eigenvalues --   -0.61922  -0.60939  -0.60332  -0.59373  -0.58189
 Alpha  occ. eigenvalues --   -0.56530  -0.55927  -0.55023  -0.54043  -0.53704
 Alpha  occ. eigenvalues --   -0.53633  -0.53092  -0.52754  -0.51961  -0.51410
 Alpha  occ. eigenvalues --   -0.51134  -0.50404  -0.50311  -0.50222  -0.49546
 Alpha  occ. eigenvalues --   -0.48477  -0.47674  -0.47252  -0.46995  -0.46586
 Alpha  occ. eigenvalues --   -0.45918  -0.45233  -0.44769  -0.44415  -0.43635
 Alpha  occ. eigenvalues --   -0.43577  -0.42265  -0.41710  -0.38221  -0.36054
 Alpha  occ. eigenvalues --   -0.33224  -0.33181  -0.31926  -0.31166  -0.29245
 Alpha virt. eigenvalues --   -0.02967   0.02976   0.03968   0.04323   0.04904
 Alpha virt. eigenvalues --    0.05076   0.05275   0.05589   0.05701   0.05920
 Alpha virt. eigenvalues --    0.06359   0.06783   0.07520   0.07800   0.07883
 Alpha virt. eigenvalues --    0.08089   0.08761   0.08936   0.09163   0.09401
 Alpha virt. eigenvalues --    0.09909   0.10141   0.10342   0.10842   0.11591
 Alpha virt. eigenvalues --    0.11701   0.12049   0.12575   0.13066   0.13320
 Alpha virt. eigenvalues --    0.13620   0.13985   0.14126   0.14669   0.14775
 Alpha virt. eigenvalues --    0.14964   0.15265   0.15497   0.15731   0.15807
 Alpha virt. eigenvalues --    0.16215   0.16644   0.16861   0.17382   0.17643
 Alpha virt. eigenvalues --    0.17765   0.18033   0.18123   0.18329   0.18695
 Alpha virt. eigenvalues --    0.18873   0.18976   0.19125   0.19569   0.19692
 Alpha virt. eigenvalues --    0.19827   0.20028   0.20489   0.20546   0.20581
 Alpha virt. eigenvalues --    0.20832   0.21434   0.21713   0.21844   0.22490
 Alpha virt. eigenvalues --    0.22586   0.22972   0.23130   0.23495   0.23791
 Alpha virt. eigenvalues --    0.23921   0.24348   0.24413   0.24558   0.24585
 Alpha virt. eigenvalues --    0.25032   0.25156   0.25318   0.25640   0.25835
 Alpha virt. eigenvalues --    0.26178   0.26516   0.26796   0.27092   0.27205
 Alpha virt. eigenvalues --    0.27502   0.27593   0.28252   0.28452   0.28819
 Alpha virt. eigenvalues --    0.28872   0.29258   0.29611   0.29874   0.30333
 Alpha virt. eigenvalues --    0.30528   0.30623   0.31006   0.31173   0.31322
 Alpha virt. eigenvalues --    0.31926   0.32466   0.32774   0.33022   0.33126
 Alpha virt. eigenvalues --    0.33449   0.34012   0.34334   0.34498   0.34829
 Alpha virt. eigenvalues --    0.35099   0.35124   0.35596   0.35668   0.35809
 Alpha virt. eigenvalues --    0.36124   0.36498   0.36722   0.36840   0.37096
 Alpha virt. eigenvalues --    0.37503   0.37688   0.38117   0.38460   0.38692
 Alpha virt. eigenvalues --    0.39097   0.39158   0.39627   0.39995   0.40466
 Alpha virt. eigenvalues --    0.40913   0.41282   0.41570   0.42026   0.42326
 Alpha virt. eigenvalues --    0.42553   0.42823   0.42970   0.43282   0.43804
 Alpha virt. eigenvalues --    0.44093   0.44667   0.45067   0.45959   0.46374
 Alpha virt. eigenvalues --    0.46781   0.47641   0.48255   0.48722   0.48916
 Alpha virt. eigenvalues --    0.49163   0.50020   0.50771   0.51646   0.51939
 Alpha virt. eigenvalues --    0.52832   0.53308   0.53627   0.54609   0.54737
 Alpha virt. eigenvalues --    0.55613   0.56042   0.57573   0.58767   0.59475
 Alpha virt. eigenvalues --    0.59916   0.60167   0.60919   0.61177   0.61653
 Alpha virt. eigenvalues --    0.62092   0.62623   0.63291   0.63608   0.64178
 Alpha virt. eigenvalues --    0.64393   0.64866   0.65519   0.66086   0.66783
 Alpha virt. eigenvalues --    0.66981   0.67259   0.67661   0.68194   0.68779
 Alpha virt. eigenvalues --    0.69137   0.69599   0.69811   0.70222   0.71028
 Alpha virt. eigenvalues --    0.71247   0.71417   0.72075   0.72559   0.72875
 Alpha virt. eigenvalues --    0.73083   0.73660   0.74086   0.74519   0.74745
 Alpha virt. eigenvalues --    0.75207   0.75398   0.75893   0.76899   0.77510
 Alpha virt. eigenvalues --    0.78358   0.78551   0.78789   0.78968   0.79633
 Alpha virt. eigenvalues --    0.79938   0.80977   0.81250   0.81747   0.82072
 Alpha virt. eigenvalues --    0.83658   0.83839   0.84038   0.85658   0.85911
 Alpha virt. eigenvalues --    0.86572   0.86848   0.87342   0.87753   0.88555
 Alpha virt. eigenvalues --    0.88908   0.89203   0.89776   0.90060   0.92356
 Alpha virt. eigenvalues --    0.93103   0.93881   0.94872   0.95907   0.96695
 Alpha virt. eigenvalues --    0.96879   0.97320   0.97608   0.97936   0.99245
 Alpha virt. eigenvalues --    0.99294   0.99678   1.00340   1.00758   1.02160
 Alpha virt. eigenvalues --    1.02333   1.03187   1.04209   1.04795   1.05183
 Alpha virt. eigenvalues --    1.05556   1.05938   1.06459   1.06902   1.07148
 Alpha virt. eigenvalues --    1.07896   1.08526   1.09386   1.09966   1.10440
 Alpha virt. eigenvalues --    1.11124   1.12085   1.13066   1.13483   1.13931
 Alpha virt. eigenvalues --    1.14475   1.15180   1.15432   1.16320   1.17244
 Alpha virt. eigenvalues --    1.17892   1.19011   1.19561   1.20423   1.21265
 Alpha virt. eigenvalues --    1.21416   1.22013   1.22820   1.23190   1.23858
 Alpha virt. eigenvalues --    1.25743   1.26645   1.27830   1.29038   1.29429
 Alpha virt. eigenvalues --    1.30409   1.30684   1.31890   1.32069   1.33211
 Alpha virt. eigenvalues --    1.33602   1.34918   1.35477   1.36852   1.38446
 Alpha virt. eigenvalues --    1.40231   1.40928   1.41641   1.44449   1.47324
 Alpha virt. eigenvalues --    1.48234   1.48525   1.49457   1.49753   1.50599
 Alpha virt. eigenvalues --    1.51395   1.51641   1.52598   1.54535   1.55321
 Alpha virt. eigenvalues --    1.55477   1.55954   1.56338   1.57149   1.58171
 Alpha virt. eigenvalues --    1.59027   1.59728   1.60535   1.60849   1.61241
 Alpha virt. eigenvalues --    1.61894   1.62443   1.63558   1.64106   1.64545
 Alpha virt. eigenvalues --    1.66072   1.66826   1.67403   1.67971   1.68209
 Alpha virt. eigenvalues --    1.68887   1.69279   1.69676   1.70089   1.70637
 Alpha virt. eigenvalues --    1.71059   1.71899   1.73250   1.74692   1.76309
 Alpha virt. eigenvalues --    1.76835   1.78248   1.79075   1.79805   1.80671
 Alpha virt. eigenvalues --    1.80845   1.81402   1.82261   1.83043   1.83876
 Alpha virt. eigenvalues --    1.84321   1.85652   1.85883   1.87126   1.87668
 Alpha virt. eigenvalues --    1.88550   1.89819   1.90833   1.91032   1.91935
 Alpha virt. eigenvalues --    1.93468   1.93647   1.94338   1.94437   1.95270
 Alpha virt. eigenvalues --    1.95800   1.96943   1.98245   1.99339   1.99490
 Alpha virt. eigenvalues --    2.00493   2.01952   2.03138   2.03551   2.03896
 Alpha virt. eigenvalues --    2.04496   2.05157   2.05813   2.07112   2.07271
 Alpha virt. eigenvalues --    2.08117   2.09140   2.09708   2.10364   2.10662
 Alpha virt. eigenvalues --    2.12784   2.14570   2.15075   2.15272   2.16194
 Alpha virt. eigenvalues --    2.16632   2.17253   2.18541   2.19121   2.20020
 Alpha virt. eigenvalues --    2.21278   2.21672   2.23765   2.24887   2.25627
 Alpha virt. eigenvalues --    2.27174   2.27480   2.28625   2.30931   2.32398
 Alpha virt. eigenvalues --    2.33723   2.35156   2.36496   2.39294   2.41050
 Alpha virt. eigenvalues --    2.41468   2.41767   2.42192   2.43072   2.44613
 Alpha virt. eigenvalues --    2.46312   2.47614   2.49936   2.50439   2.51501
 Alpha virt. eigenvalues --    2.55221   2.55867   2.56548   2.56741   2.59294
 Alpha virt. eigenvalues --    2.60601   2.62303   2.62436   2.63693   2.64067
 Alpha virt. eigenvalues --    2.65162   2.66607   2.68262   2.68905   2.70074
 Alpha virt. eigenvalues --    2.70885   2.72838   2.73084   2.73240   2.73485
 Alpha virt. eigenvalues --    2.74794   2.75872   2.77150   2.78091   2.78820
 Alpha virt. eigenvalues --    2.79650   2.79838   2.80523   2.81722   2.82669
 Alpha virt. eigenvalues --    2.82803   2.83552   2.84332   2.84762   2.85690
 Alpha virt. eigenvalues --    2.85877   2.87303   2.88172   2.89340   2.89967
 Alpha virt. eigenvalues --    2.90836   2.91242   2.91843   2.93830   2.94883
 Alpha virt. eigenvalues --    2.95543   2.96536   2.97022   2.97686   3.00834
 Alpha virt. eigenvalues --    3.01778   3.02134   3.03312   3.06759   3.07933
 Alpha virt. eigenvalues --    3.09056   3.10683   3.11595   3.14163   3.16093
 Alpha virt. eigenvalues --    3.16699   3.16970   3.17390   3.18115   3.18329
 Alpha virt. eigenvalues --    3.19770   3.20162   3.20734   3.21327   3.22104
 Alpha virt. eigenvalues --    3.22615   3.25132   3.26079   3.26521   3.27115
 Alpha virt. eigenvalues --    3.27655   3.28859   3.29439   3.30235   3.32338
 Alpha virt. eigenvalues --    3.32539   3.36528   3.38609   3.40652   3.42187
 Alpha virt. eigenvalues --    3.42811   3.47836   3.51853   3.52343   3.53870
 Alpha virt. eigenvalues --    3.54491   3.56994   3.58316   3.60563   3.64229
 Alpha virt. eigenvalues --    3.65229   3.66308   3.68829   3.69158   3.73757
 Alpha virt. eigenvalues --    3.76006   3.78933   3.79895   3.84599   3.85880
 Alpha virt. eigenvalues --    3.88285   3.90805   3.92949   3.93955   3.95484
 Alpha virt. eigenvalues --    3.97778   3.98273   4.00588   4.01043   4.04592
 Alpha virt. eigenvalues --    4.06069   4.16141   4.17540   4.20342   4.21947
 Alpha virt. eigenvalues --    4.26713   4.28126   4.28483   4.31104   4.35987
 Alpha virt. eigenvalues --    4.36795   4.43450   4.53068   4.56654   4.76717
 Alpha virt. eigenvalues --    4.93161   4.94722   5.09440   5.10597   5.12924
 Alpha virt. eigenvalues --    5.15509   5.18078   5.42678   5.53984   5.56815
 Alpha virt. eigenvalues --    5.58808   5.64738   5.84437   5.86279   5.89571
 Alpha virt. eigenvalues --    5.91086   5.94404  23.67846  23.72984  23.83843
 Alpha virt. eigenvalues --   23.93476  24.00138  24.02565  24.03163  24.03891
 Alpha virt. eigenvalues --   24.06355  24.06554  24.07943  24.12214  24.13319
 Alpha virt. eigenvalues --   24.14578  24.19992  24.22150  24.30158  24.31155
 Alpha virt. eigenvalues --   24.34120  24.37562  50.06011  50.08572  50.09056
 Alpha virt. eigenvalues --   50.13208  50.17858
          Condensed to atoms (all electrons):
               1          2          3          4          5          6
     1  C   17.116116  -0.515053  -2.731606  -0.453332  -5.404462   0.067402
     2  C   -0.515053   8.267018   0.330154  -0.188360  -0.300991  -0.991761
     3  C   -2.731606   0.330154  10.205782   1.055145  -2.156833  -0.559015
     4  C   -0.453332  -0.188360   1.055145  11.347389  -2.496541  -2.728222
     5  C   -5.404462  -0.300991  -2.156833  -2.496541  15.838962   1.301151
     6  C    0.067402  -0.991761  -0.559015  -2.728222   1.301151  12.014038
     7  H    0.766997  -0.071961  -0.096814   0.013003  -0.096899  -0.155219
     8  H   -0.017216  -0.214134   0.383654   0.037542   0.096325   0.020991
     9  H    0.056899   0.056428   0.022090   0.481781  -0.147512   0.013919
    10  O   -0.446693   0.440232   0.068098  -0.049408   0.036792  -0.009091
    11  H    0.096443   0.080372  -0.152391  -0.019041  -0.003852   0.005374
    12  O    0.248214  -0.021367  -0.000103  -0.087592  -0.595960   0.483039
    13  H   -0.337534  -0.016041   0.002051  -0.002467   0.206261   0.132422
    14  C   -2.349594  -0.001568   0.758604   2.682265  -1.834424  -4.298659
    15  H   -0.248818   0.002553   0.100710   0.256620   0.033327  -0.279181
    16  C   -0.044249  -0.216453  -0.283564   0.082140  -2.981802  -0.985138
    17  H    0.037729  -0.015434  -0.154738  -0.148872   0.090359   0.008513
    18  C    0.425510  -0.070352  -0.249037  -2.095594   1.737959   1.571797
    19  O   -0.010105  -0.000071   0.002469   0.010898   0.064155  -0.017133
    20  C    0.063145  -0.023830  -0.152143  -1.133652   1.334271   0.650177
    21  C    0.013468   0.007193   0.008272  -0.271250   0.502227   0.251619
    22  C   -0.025108   0.008344   0.025010   0.325075  -0.083759  -0.200993
    23  C    0.000047   0.002706   0.005968  -0.006464   0.085121   0.031274
    24  H   -0.005688   0.000571   0.019525   0.013138  -0.015490   0.005711
    25  C   -0.006202   0.000233   0.014335   0.112026  -0.292008  -0.060080
    26  C    0.000265   0.000398  -0.003988  -0.000855   0.000801  -0.000226
    27  H    0.000115  -0.000011  -0.000580  -0.001158   0.001247  -0.000126
    28  O    0.000339  -0.000014  -0.000185  -0.003384   0.004812   0.004050
    29  H    0.002319  -0.000035  -0.001310  -0.011386   0.009545   0.011530
    30  O    0.000000  -0.000000  -0.000001  -0.000012   0.000059   0.000002
    31  H    0.000005  -0.000002  -0.000022  -0.000153   0.000102   0.000020
    32  C   -0.000246   0.000011   0.000793   0.006647  -0.016973  -0.003048
    33  H   -0.000043  -0.000001   0.000075   0.001059  -0.003801  -0.000800
    34  H    0.000006  -0.000002  -0.000019  -0.000197   0.000181   0.000073
    35  C   -0.000004   0.000005  -0.000004   0.000139   0.001813   0.000113
    36  H    0.000002  -0.000000   0.000000  -0.000001  -0.000022   0.000009
    37  C   -0.000002   0.000001  -0.000013  -0.000108   0.000910   0.000036
    38  C   -0.000000   0.000000  -0.000000  -0.000006   0.000069   0.000001
    39  H    0.000000   0.000000   0.000000   0.000000  -0.000001  -0.000000
    40  H   -0.000000   0.000000  -0.000000  -0.000000   0.000001   0.000000
    41  H   -0.000000   0.000000   0.000000   0.000000   0.000016   0.000000
    42  C   -0.000000   0.000000   0.000001   0.000008  -0.000018  -0.000002
    43  H   -0.000000   0.000000  -0.000000  -0.000001   0.000010   0.000000
    44  H    0.000000  -0.000000   0.000000   0.000000  -0.000000  -0.000000
    45  H   -0.000000   0.000000   0.000000   0.000000  -0.000001  -0.000000
               7          8          9         10         11         12
     1  C    0.766997  -0.017216   0.056899  -0.446693   0.096443   0.248214
     2  C   -0.071961  -0.214134   0.056428   0.440232   0.080372  -0.021367
     3  C   -0.096814   0.383654   0.022090   0.068098  -0.152391  -0.000103
     4  C    0.013003   0.037542   0.481781  -0.049408  -0.019041  -0.087592
     5  C   -0.096899   0.096325  -0.147512   0.036792  -0.003852  -0.595960
     6  C   -0.155219   0.020991   0.013919  -0.009091   0.005374   0.483039
     7  H    0.458377  -0.000730   0.001887  -0.029094   0.003395  -0.014564
     8  H   -0.000730   0.458168  -0.022125  -0.011858  -0.007372   0.000986
     9  H    0.001887  -0.022125   0.488026   0.001425   0.001969  -0.002237
    10  O   -0.029094  -0.011858   0.001425   7.966069   0.289577  -0.001001
    11  H    0.003395  -0.007372   0.001969   0.289577   0.389616  -0.000600
    12  O   -0.014564   0.000986  -0.002237  -0.001001  -0.000600   7.975556
    13  H   -0.001941   0.000417  -0.000825   0.000127  -0.000081   0.255278
    14  C   -0.011853  -0.001677  -0.036560  -0.001608  -0.000110  -0.024289
    15  H   -0.001528   0.000162   0.002241   0.000124   0.000163  -0.037572
    16  C   -0.011124   0.011816  -0.047973   0.002464  -0.002367   0.067780
    17  H    0.000245   0.007582  -0.040174  -0.000668  -0.000554   0.000219
    18  C    0.002495   0.006471  -0.034755   0.000083   0.000209  -0.009070
    19  O   -0.000009   0.000028   0.000497   0.000000   0.000001  -0.001552
    20  C   -0.000815   0.003447  -0.042048   0.000058  -0.000048  -0.002267
    21  C   -0.000276  -0.000441   0.002924   0.000011   0.000114  -0.000598
    22  C    0.000105  -0.000810   0.009269  -0.000006   0.000003   0.001060
    23  C   -0.000044  -0.000605   0.012310   0.000000   0.000042  -0.000000
    24  H   -0.000088  -0.000444   0.001731   0.000031   0.000055   0.000141
    25  C   -0.000036  -0.000152   0.002604   0.000001   0.000002   0.000243
    26  C    0.000001  -0.000043   0.001118  -0.000000   0.000003   0.000025
    27  H    0.000002   0.000009  -0.000101  -0.000000  -0.000001  -0.000001
    28  O    0.000000  -0.000000   0.000101   0.000000  -0.000000  -0.000052
    29  H    0.000004   0.000005  -0.000062   0.000000  -0.000000   0.000048
    30  O    0.000000  -0.000000   0.000015   0.000000  -0.000000  -0.000000
    31  H    0.000000   0.000000  -0.000016  -0.000000  -0.000000   0.000000
    32  C    0.000000  -0.000002   0.000029   0.000000   0.000000   0.000017
    33  H   -0.000000  -0.000001   0.000006   0.000000  -0.000000   0.000003
    34  H    0.000000  -0.000000  -0.000004   0.000000  -0.000000  -0.000001
    35  C    0.000000  -0.000000   0.000081  -0.000000   0.000000  -0.000000
    36  H    0.000000  -0.000000   0.000001  -0.000000  -0.000000  -0.000000
    37  C   -0.000000   0.000000   0.000021  -0.000000   0.000000   0.000000
    38  C    0.000000  -0.000000   0.000002  -0.000000   0.000000  -0.000000
    39  H    0.000000  -0.000000  -0.000000  -0.000000  -0.000000  -0.000000
    40  H   -0.000000  -0.000000   0.000000   0.000000   0.000000  -0.000000
    41  H   -0.000000   0.000000  -0.000001  -0.000000   0.000000   0.000000
    42  C    0.000000   0.000000  -0.000002   0.000000  -0.000000   0.000000
    43  H   -0.000000  -0.000000   0.000000  -0.000000   0.000000   0.000000
    44  H    0.000000   0.000000   0.000000  -0.000000   0.000000  -0.000000
    45  H   -0.000000  -0.000000  -0.000000   0.000000   0.000000   0.000000
              13         14         15         16         17         18
     1  C   -0.337534  -2.349594  -0.248818  -0.044249   0.037729   0.425510
     2  C   -0.016041  -0.001568   0.002553  -0.216453  -0.015434  -0.070352
     3  C    0.002051   0.758604   0.100710  -0.283564  -0.154738  -0.249037
     4  C   -0.002467   2.682265   0.256620   0.082140  -0.148872  -2.095594
     5  C    0.206261  -1.834424   0.033327  -2.981802   0.090359   1.737959
     6  C    0.132422  -4.298659  -0.279181  -0.985138   0.008513   1.571797
     7  H   -0.001941  -0.011853  -0.001528  -0.011124   0.000245   0.002495
     8  H    0.000417  -0.001677   0.000162   0.011816   0.007582   0.006471
     9  H   -0.000825  -0.036560   0.002241  -0.047973  -0.040174  -0.034755
    10  O    0.000127  -0.001608   0.000124   0.002464  -0.000668   0.000083
    11  H   -0.000081  -0.000110   0.000163  -0.002367  -0.000554   0.000209
    12  O    0.255278  -0.024289  -0.037572   0.067780   0.000219  -0.009070
    13  H    0.403912   0.024832   0.007403  -0.003832   0.000302   0.003482
    14  C    0.024832  11.546584   0.647866   3.727426  -0.001644  -3.261527
    15  H    0.007403   0.647866   0.492368   0.027261  -0.010676  -0.159271
    16  C   -0.003832   3.727426   0.027261  13.163205   0.536940  -1.470509
    17  H    0.000302  -0.001644  -0.010676   0.536940   0.759602   0.146927
    18  C    0.003482  -3.261527  -0.159271  -1.470509   0.146927  13.190119
    19  O    0.000058  -0.025947   0.007958  -0.313685   0.003736   0.801680
    20  C    0.002431  -1.885130  -0.203249  -4.730184   0.259957  -2.468327
    21  C    0.000441  -0.701703  -0.013924  -2.157157  -0.191973  -1.165839
    22  C   -0.000758   0.569313   0.049055   0.664490  -0.004375  -3.656560
    23  C    0.000006  -0.095688   0.001268  -0.730783  -0.069970  -0.279267
    24  H    0.000028  -0.003314   0.003211   0.000258  -0.054770  -0.021183
    25  C   -0.000149   0.338131   0.036947   1.282647  -0.104059   1.736649
    26  C   -0.000027   0.030753   0.002034  -0.023686   0.047391   1.074501
    27  H   -0.000001  -0.002730  -0.000179   0.001836   0.006878  -0.002146
    28  O    0.000024  -0.009393  -0.004856  -0.062440   0.000524  -0.151900
    29  H    0.000028  -0.005410  -0.000901  -0.012656   0.000293   0.045761
    30  O    0.000000   0.000368   0.000001  -0.000284  -0.000518  -0.008113
    31  H   -0.000000  -0.000182  -0.000022  -0.003884   0.000732   0.000525
    32  C   -0.000010  -0.017010   0.006397   0.139870  -0.009906   0.645994
    33  H   -0.000004   0.001540   0.000897   0.024763  -0.000100   0.087694
    34  H    0.000000  -0.000091  -0.000163  -0.001355   0.000236   0.018621
    35  C    0.000001  -0.001167  -0.000130  -0.003124  -0.003004  -0.106326
    36  H    0.000000  -0.000329  -0.000029   0.000806   0.000102   0.004754
    37  C   -0.000000   0.003798   0.000038  -0.008762  -0.000475  -0.137893
    38  C    0.000000   0.000171  -0.000010   0.000100  -0.000038  -0.019638
    39  H   -0.000000  -0.000002   0.000000   0.000063   0.000005   0.000416
    40  H    0.000000   0.000001  -0.000001  -0.000013  -0.000006  -0.000261
    41  H   -0.000000   0.000073   0.000007  -0.000483   0.000006  -0.003252
    42  C   -0.000000  -0.000073   0.000015  -0.000026  -0.000038  -0.000340
    43  H   -0.000000   0.000036   0.000000  -0.000016  -0.000010  -0.001405
    44  H   -0.000000  -0.000004   0.000000   0.000013  -0.000001  -0.000054
    45  H   -0.000000   0.000002   0.000000   0.000004  -0.000001   0.000230
              19         20         21         22         23         24
     1  C   -0.010105   0.063145   0.013468  -0.025108   0.000047  -0.005688
     2  C   -0.000071  -0.023830   0.007193   0.008344   0.002706   0.000571
     3  C    0.002469  -0.152143   0.008272   0.025010   0.005968   0.019525
     4  C    0.010898  -1.133652  -0.271250   0.325075  -0.006464   0.013138
     5  C    0.064155   1.334271   0.502227  -0.083759   0.085121  -0.015490
     6  C   -0.017133   0.650177   0.251619  -0.200993   0.031274   0.005711
     7  H   -0.000009  -0.000815  -0.000276   0.000105  -0.000044  -0.000088
     8  H    0.000028   0.003447  -0.000441  -0.000810  -0.000605  -0.000444
     9  H    0.000497  -0.042048   0.002924   0.009269   0.012310   0.001731
    10  O    0.000000   0.000058   0.000011  -0.000006   0.000000   0.000031
    11  H    0.000001  -0.000048   0.000114   0.000003   0.000042   0.000055
    12  O   -0.001552  -0.002267  -0.000598   0.001060  -0.000000   0.000141
    13  H    0.000058   0.002431   0.000441  -0.000758   0.000006   0.000028
    14  C   -0.025947  -1.885130  -0.701703   0.569313  -0.095688  -0.003314
    15  H    0.007958  -0.203249  -0.013924   0.049055   0.001268   0.003211
    16  C   -0.313685  -4.730184  -2.157157   0.664490  -0.730783   0.000258
    17  H    0.003736   0.259957  -0.191973  -0.004375  -0.069970  -0.054770
    18  C    0.801680  -2.468327  -1.165839  -3.656560  -0.279267  -0.021183
    19  O    8.170301  -0.187011  -0.174524  -0.050431  -0.029918  -0.002194
    20  C   -0.187011  23.339137  -1.352180   2.520437  -1.542676  -0.262037
    21  C   -0.174524  -1.352180  13.410432  -0.187576   0.819727   0.733220
    22  C   -0.050431   2.520437  -0.187576  11.938026  -1.171987  -0.022911
    23  C   -0.029918  -1.542676   0.819727  -1.171987  11.926764  -0.175083
    24  H   -0.002194  -0.262037   0.733220  -0.022911  -0.175083   0.540782
    25  C    0.023156  -7.844542   1.716355   0.851606  -4.901153   0.249170
    26  C    0.018517   0.639723  -4.795795  -3.173354   2.886390  -0.195104
    27  H    0.000235   0.083376  -0.056300  -0.003374   0.533399  -0.027451
    28  O    0.031840   0.172470   0.017394   0.387209   0.023160  -0.002838
    29  H    0.056650  -0.141959   0.051429   0.061740   0.010747   0.001724
    30  O   -0.000023  -0.036025   0.014806   0.079203  -0.464219   0.004378
    31  H    0.000053   0.093465  -0.064618  -0.023398   0.204562  -0.004115
    32  C   -0.017362  -1.727829   0.416819  -2.931966  -0.052403   0.014976
    33  H    0.001025  -0.158768  -0.075932  -0.328101   0.034841  -0.001771
    34  H    0.000267   0.038133   0.002107   0.050212  -0.010582   0.000339
    35  C    0.001132  -0.367412  -0.077409  -0.473744   0.165895   0.002567
    36  H   -0.000043   0.010411  -0.011117   0.006593  -0.018957  -0.000114
    37  C    0.000699   0.047438   0.171486   0.829431  -0.419939   0.002258
    38  C    0.000092   0.007682   0.013501   0.128743  -0.095678   0.000092
    39  H   -0.000002  -0.000030  -0.000049  -0.002146  -0.002210  -0.000025
    40  H    0.000001  -0.000704   0.000055   0.000236  -0.002526   0.000021
    41  H    0.000010  -0.000291   0.001936   0.016482  -0.002387  -0.000019
    42  C    0.000002  -0.006471  -0.003673  -0.040339   0.021688   0.000260
    43  H    0.000005  -0.001264   0.001785   0.007963  -0.004556   0.000027
    44  H    0.000000   0.000384  -0.000267  -0.002172  -0.000785   0.000001
    45  H   -0.000000  -0.000774   0.001046   0.000634   0.001806   0.000019
              25         26         27         28         29         30
     1  C   -0.006202   0.000265   0.000115   0.000339   0.002319   0.000000
     2  C    0.000233   0.000398  -0.000011  -0.000014  -0.000035  -0.000000
     3  C    0.014335  -0.003988  -0.000580  -0.000185  -0.001310  -0.000001
     4  C    0.112026  -0.000855  -0.001158  -0.003384  -0.011386  -0.000012
     5  C   -0.292008   0.000801   0.001247   0.004812   0.009545   0.000059
     6  C   -0.060080  -0.000226  -0.000126   0.004050   0.011530   0.000002
     7  H   -0.000036   0.000001   0.000002   0.000000   0.000004   0.000000
     8  H   -0.000152  -0.000043   0.000009  -0.000000   0.000005  -0.000000
     9  H    0.002604   0.001118  -0.000101   0.000101  -0.000062   0.000015
    10  O    0.000001  -0.000000  -0.000000   0.000000   0.000000   0.000000
    11  H    0.000002   0.000003  -0.000001  -0.000000  -0.000000  -0.000000
    12  O    0.000243   0.000025  -0.000001  -0.000052   0.000048  -0.000000
    13  H   -0.000149  -0.000027  -0.000001   0.000024   0.000028   0.000000
    14  C    0.338131   0.030753  -0.002730  -0.009393  -0.005410   0.000368
    15  H    0.036947   0.002034  -0.000179  -0.004856  -0.000901   0.000001
    16  C    1.282647  -0.023686   0.001836  -0.062440  -0.012656  -0.000284
    17  H   -0.104059   0.047391   0.006878   0.000524   0.000293  -0.000518
    18  C    1.736649   1.074501  -0.002146  -0.151900   0.045761  -0.008113
    19  O    0.023156   0.018517   0.000235   0.031840   0.056650  -0.000023
    20  C   -7.844542   0.639723   0.083376   0.172470  -0.141959  -0.036025
    21  C    1.716355  -4.795795  -0.056300   0.017394   0.051429   0.014806
    22  C    0.851606  -3.173354  -0.003374   0.387209   0.061740   0.079203
    23  C   -4.901153   2.886390   0.533399   0.023160   0.010747  -0.464219
    24  H    0.249170  -0.195104  -0.027451  -0.002838   0.001724   0.004378
    25  C   22.767417  -6.783805  -0.158397  -0.430370   0.076293   0.434808
    26  C   -6.783805  17.292239  -0.057704   0.054274  -0.025910  -0.012543
    27  H   -0.158397  -0.057704   0.452383   0.000595   0.000311  -0.026759
    28  O   -0.430370   0.054274   0.000595   8.220002   0.202604  -0.000151
    29  H    0.076293  -0.025910   0.000311   0.202604   0.299729  -0.000108
    30  O    0.434808  -0.012543  -0.026759  -0.000151  -0.000108   8.030683
    31  H   -0.374071   0.295778   0.003918  -0.000460   0.000094   0.229414
    32  C   -3.894447   0.158762  -0.009988  -0.000256  -0.059348  -0.006066
    33  H   -0.179502   0.179737   0.001714  -0.018420  -0.008144  -0.005807
    34  H    0.107021   0.021690  -0.001087   0.014776   0.001204   0.008457
    35  C   -1.472594   0.781255   0.002721  -0.042173  -0.000470  -0.180578
    36  H    0.081311  -0.043968  -0.000540   0.000621  -0.000791   0.000180
    37  C    1.627039  -1.466639   0.000461  -0.010525   0.009450   0.197901
    38  C    0.542523  -0.421569  -0.000441   0.000129   0.000735   0.011821
    39  H    0.006230  -0.009635  -0.000030   0.000007  -0.000032   0.003429
    40  H   -0.014955  -0.005478   0.000008  -0.000033   0.000006  -0.001449
    41  H    0.013138  -0.011982  -0.000027   0.000523   0.000256   0.002151
    42  C   -0.054310   0.038171   0.000184  -0.000592  -0.000140   0.000826
    43  H    0.016187  -0.012031   0.000120  -0.000023   0.000074   0.002604
    44  H   -0.007974  -0.000869   0.000005  -0.000085  -0.000029  -0.001243
    45  H    0.009444  -0.004106  -0.000031   0.000071   0.000011   0.002272
              31         32         33         34         35         36
     1  C    0.000005  -0.000246  -0.000043   0.000006  -0.000004   0.000002
     2  C   -0.000002   0.000011  -0.000001  -0.000002   0.000005  -0.000000
     3  C   -0.000022   0.000793   0.000075  -0.000019  -0.000004   0.000000
     4  C   -0.000153   0.006647   0.001059  -0.000197   0.000139  -0.000001
     5  C    0.000102  -0.016973  -0.003801   0.000181   0.001813  -0.000022
     6  C    0.000020  -0.003048  -0.000800   0.000073   0.000113   0.000009
     7  H    0.000000   0.000000  -0.000000   0.000000   0.000000   0.000000
     8  H    0.000000  -0.000002  -0.000001  -0.000000  -0.000000  -0.000000
     9  H   -0.000016   0.000029   0.000006  -0.000004   0.000081   0.000001
    10  O   -0.000000   0.000000   0.000000   0.000000  -0.000000  -0.000000
    11  H   -0.000000   0.000000  -0.000000  -0.000000   0.000000  -0.000000
    12  O    0.000000   0.000017   0.000003  -0.000001  -0.000000  -0.000000
    13  H   -0.000000  -0.000010  -0.000004   0.000000   0.000001   0.000000
    14  C   -0.000182  -0.017010   0.001540  -0.000091  -0.001167  -0.000329
    15  H   -0.000022   0.006397   0.000897  -0.000163  -0.000130  -0.000029
    16  C   -0.003884   0.139870   0.024763  -0.001355  -0.003124   0.000806
    17  H    0.000732  -0.009906  -0.000100   0.000236  -0.003004   0.000102
    18  C    0.000525   0.645994   0.087694   0.018621  -0.106326   0.004754
    19  O    0.000053  -0.017362   0.001025   0.000267   0.001132  -0.000043
    20  C    0.093465  -1.727829  -0.158768   0.038133  -0.367412   0.010411
    21  C   -0.064618   0.416819  -0.075932   0.002107  -0.077409  -0.011117
    22  C   -0.023398  -2.931966  -0.328101   0.050212  -0.473744   0.006593
    23  C    0.204562  -0.052403   0.034841  -0.010582   0.165895  -0.018957
    24  H   -0.004115   0.014976  -0.001771   0.000339   0.002567  -0.000114
    25  C   -0.374071  -3.894447  -0.179502   0.107021  -1.472594   0.081311
    26  C    0.295778   0.158762   0.179737   0.021690   0.781255  -0.043968
    27  H    0.003918  -0.009988   0.001714  -0.001087   0.002721  -0.000540
    28  O   -0.000460  -0.000256  -0.018420   0.014776  -0.042173   0.000621
    29  H    0.000094  -0.059348  -0.008144   0.001204  -0.000470  -0.000791
    30  O    0.229414  -0.006066  -0.005807   0.008457  -0.180578   0.000180
    31  H    0.401626  -0.113145   0.001264   0.006562   0.055671   0.006977
    32  C   -0.113145  15.704573   0.672779   0.549647  -1.143851   0.090337
    33  H    0.001264   0.672779   0.524130  -0.055609   0.240393   0.002196
    34  H    0.006562   0.549647  -0.055609   0.599307  -0.360939   0.018656
    35  C    0.055671  -1.143851   0.240393  -0.360939  15.427119   0.521049
    36  H    0.006977   0.090337   0.002196   0.018656   0.521049   0.482007
    37  C   -0.087998  -1.006393  -0.179540  -0.100265  -6.076568  -0.329759
    38  C   -0.023693  -0.921254  -0.023468  -0.071304  -0.793370  -0.016712
    39  H   -0.007992   0.017381  -0.000717   0.004824  -0.062830  -0.000968
    40  H   -0.001124   0.012828   0.003834  -0.004506   0.044069  -0.000415
    41  H    0.000778  -0.095368  -0.002248  -0.012974  -0.044759  -0.003245
    42  C    0.008910   0.002427   0.005592  -0.016172   0.716776  -0.014229
    43  H   -0.003639  -0.035836  -0.001803  -0.002341   0.028770  -0.014576
    44  H   -0.001926   0.015539   0.002844  -0.001343   0.030205   0.004639
    45  H   -0.001698  -0.006340  -0.000992   0.000165  -0.163181  -0.001530
              37         38         39         40         41         42
     1  C   -0.000002  -0.000000   0.000000  -0.000000  -0.000000  -0.000000
     2  C    0.000001   0.000000   0.000000   0.000000   0.000000   0.000000
     3  C   -0.000013  -0.000000   0.000000  -0.000000   0.000000   0.000001
     4  C   -0.000108  -0.000006   0.000000  -0.000000   0.000000   0.000008
     5  C    0.000910   0.000069  -0.000001   0.000001   0.000016  -0.000018
     6  C    0.000036   0.000001  -0.000000   0.000000   0.000000  -0.000002
     7  H   -0.000000   0.000000   0.000000  -0.000000  -0.000000   0.000000
     8  H    0.000000  -0.000000  -0.000000  -0.000000   0.000000   0.000000
     9  H    0.000021   0.000002  -0.000000   0.000000  -0.000001  -0.000002
    10  O   -0.000000  -0.000000  -0.000000   0.000000  -0.000000   0.000000
    11  H    0.000000   0.000000  -0.000000   0.000000   0.000000  -0.000000
    12  O    0.000000  -0.000000  -0.000000  -0.000000   0.000000   0.000000
    13  H   -0.000000   0.000000  -0.000000   0.000000  -0.000000  -0.000000
    14  C    0.003798   0.000171  -0.000002   0.000001   0.000073  -0.000073
    15  H    0.000038  -0.000010   0.000000  -0.000001   0.000007   0.000015
    16  C   -0.008762   0.000100   0.000063  -0.000013  -0.000483  -0.000026
    17  H   -0.000475  -0.000038   0.000005  -0.000006   0.000006  -0.000038
    18  C   -0.137893  -0.019638   0.000416  -0.000261  -0.003252  -0.000340
    19  O    0.000699   0.000092  -0.000002   0.000001   0.000010   0.000002
    20  C    0.047438   0.007682  -0.000030  -0.000704  -0.000291  -0.006471
    21  C    0.171486   0.013501  -0.000049   0.000055   0.001936  -0.003673
    22  C    0.829431   0.128743  -0.002146   0.000236   0.016482  -0.040339
    23  C   -0.419939  -0.095678  -0.002210  -0.002526  -0.002387   0.021688
    24  H    0.002258   0.000092  -0.000025   0.000021  -0.000019   0.000260
    25  C    1.627039   0.542523   0.006230  -0.014955   0.013138  -0.054310
    26  C   -1.466639  -0.421569  -0.009635  -0.005478  -0.011982   0.038171
    27  H    0.000461  -0.000441  -0.000030   0.000008  -0.000027   0.000184
    28  O   -0.010525   0.000129   0.000007  -0.000033   0.000523  -0.000592
    29  H    0.009450   0.000735  -0.000032   0.000006   0.000256  -0.000140
    30  O    0.197901   0.011821   0.003429  -0.001449   0.002151   0.000826
    31  H   -0.087998  -0.023693  -0.007992  -0.001124   0.000778   0.008910
    32  C   -1.006393  -0.921254   0.017381   0.012828  -0.095368   0.002427
    33  H   -0.179540  -0.023468  -0.000717   0.003834  -0.002248   0.005592
    34  H   -0.100265  -0.071304   0.004824  -0.004506  -0.012974  -0.016172
    35  C   -6.076568  -0.793370  -0.062830   0.044069  -0.044759   0.716776
    36  H   -0.329759  -0.016712  -0.000968  -0.000415  -0.003245  -0.014229
    37  C   12.324350   0.940864  -0.004533  -0.078962   0.043777  -0.915317
    38  C    0.940864   6.801751   0.372038   0.430028   0.406613  -0.718347
    39  H   -0.004533   0.372038   0.517919  -0.046322  -0.020347   0.051264
    40  H   -0.078962   0.430028  -0.046322   0.520629  -0.026653  -0.018751
    41  H    0.043777   0.406613  -0.020347  -0.026653   0.553820   0.005895
    42  C   -0.915317  -0.718347   0.051264  -0.018751   0.005895   6.447091
    43  H   -0.020884   0.009788  -0.000981  -0.000016  -0.001574   0.371802
    44  H   -0.057972   0.018742   0.001550   0.004790  -0.002514   0.361659
    45  H    0.067052   0.027634   0.001739   0.000782   0.002356   0.421911
              43         44         45
     1  C   -0.000000   0.000000  -0.000000
     2  C    0.000000  -0.000000   0.000000
     3  C   -0.000000   0.000000   0.000000
     4  C   -0.000001   0.000000   0.000000
     5  C    0.000010  -0.000000  -0.000001
     6  C    0.000000  -0.000000  -0.000000
     7  H   -0.000000   0.000000  -0.000000
     8  H   -0.000000   0.000000  -0.000000
     9  H    0.000000   0.000000  -0.000000
    10  O   -0.000000  -0.000000   0.000000
    11  H    0.000000   0.000000   0.000000
    12  O    0.000000  -0.000000   0.000000
    13  H   -0.000000  -0.000000  -0.000000
    14  C    0.000036  -0.000004   0.000002
    15  H    0.000000   0.000000   0.000000
    16  C   -0.000016   0.000013   0.000004
    17  H   -0.000010  -0.000001  -0.000001
    18  C   -0.001405  -0.000054   0.000230
    19  O    0.000005   0.000000  -0.000000
    20  C   -0.001264   0.000384  -0.000774
    21  C    0.001785  -0.000267   0.001046
    22  C    0.007963  -0.002172   0.000634
    23  C   -0.004556  -0.000785   0.001806
    24  H    0.000027   0.000001   0.000019
    25  C    0.016187  -0.007974   0.009444
    26  C   -0.012031  -0.000869  -0.004106
    27  H    0.000120   0.000005  -0.000031
    28  O   -0.000023  -0.000085   0.000071
    29  H    0.000074  -0.000029   0.000011
    30  O    0.002604  -0.001243   0.002272
    31  H   -0.003639  -0.001926  -0.001698
    32  C   -0.035836   0.015539  -0.006340
    33  H   -0.001803   0.002844  -0.000992
    34  H   -0.002341  -0.001343   0.000165
    35  C    0.028770   0.030205  -0.163181
    36  H   -0.014576   0.004639  -0.001530
    37  C   -0.020884  -0.057972   0.067052
    38  C    0.009788   0.018742   0.027634
    39  H   -0.000981   0.001550   0.001739
    40  H   -0.000016   0.004790   0.000782
    41  H   -0.001574  -0.002514   0.002356
    42  C    0.371802   0.361659   0.421911
    43  H    0.514360  -0.019175  -0.018436
    44  H   -0.019175   0.544508  -0.058398
    45  H   -0.018436  -0.058398   0.540572
 Mulliken charges:
               1
     1  C   -0.299066
     2  C   -0.548779
     3  C   -0.460368
     4  C   -0.726822
     5  C    1.084873
     6  C   -0.284566
     7  H    0.246483
     8  H    0.250007
     9  H    0.217021
    10  O   -0.255666
    11  H    0.319080
    12  O   -0.233784
    13  H    0.324168
    14  C    0.239924
    15  H    0.281882
    16  C    0.361670
    17  H   -0.096274
    18  C   -0.129259
    19  O   -0.365452
    20  C    1.005522
    21  C   -0.855768
    22  C   -0.146370
    23  C   -0.689840
    24  H    0.200406
    25  C    0.533289
    26  C   -0.474508
    27  H    0.259645
    28  O   -0.397376
    29  H    0.426101
    30  O   -0.279480
    31  H    0.401702
    32  C   -0.386778
    33  H    0.259186
    34  H    0.196468
    35  C   -0.646136
    36  H    0.226696
    37  C    0.635539
    38  C   -0.607594
    39  H    0.181988
    40  H    0.184888
    41  H    0.180287
    42  C   -0.665642
    43  H    0.185033
    44  H    0.169932
    45  H    0.177738
 Sum of Mulliken charges =  -0.00000
 Mulliken charges with hydrogens summed into heavy atoms:
               1
     1  C   -0.052583
     2  C   -0.548779
     3  C   -0.210361
     4  C   -0.509801
     5  C    1.084873
     6  C   -0.284566
    10  O    0.063414
    12  O    0.090384
    14  C    0.521807
    16  C    0.265396
    18  C   -0.129259
    19  O   -0.365452
    20  C    1.005522
    21  C   -0.655362
    22  C   -0.146370
    23  C   -0.430195
    25  C    0.533289
    26  C   -0.474508
    28  O    0.028725
    30  O    0.122221
    32  C    0.068876
    35  C   -0.419441
    37  C    0.635539
    38  C   -0.060431
    42  C   -0.132939
 Electronic spatial extent (au):  <R**2>=          17100.0381
 Charge=             -0.0000 electrons
 Dipole moment (field-independent basis, Debye):
    X=              2.7181    Y=             -4.2993    Z=              0.5352  Tot=              5.1145
 Quadrupole moment (field-independent basis, Debye-Ang):
   XX=            -76.7040   YY=           -140.0404   ZZ=           -151.6626
   XY=            -10.9560   XZ=              0.0322   YZ=             -2.5668
 Traceless Quadrupole moment (field-independent basis, Debye-Ang):
   XX=             46.0983   YY=            -17.2380   ZZ=            -28.8602
   XY=            -10.9560   XZ=              0.0322   YZ=             -2.5668
 Octapole moment (field-independent basis, Debye-Ang**2):
  XXX=             23.4225  YYY=            -21.4384  ZZZ=              3.0071  XYY=            147.8601
  XXY=            -30.9275  XXZ=             16.4050  XZZ=            -18.2558  YZZ=              8.3661
  YYZ=              3.9904  XYZ=             -2.0768
 Hexadecapole moment (field-independent basis, Debye-Ang**3):
 XXXX=         -17024.9679 YYYY=          -1451.3645 ZZZZ=           -427.5929 XXXY=           -300.7015
 XXXZ=             45.7085 YYYX=           -107.4105 YYYZ=            -13.1598 ZZZX=            -12.7707
 ZZZY=             -6.5655 XXYY=          -2961.3770 XXZZ=          -3649.4172 YYZZ=           -351.6005
 XXYZ=           -127.4119 YYXZ=             26.0476 ZZXY=              3.0376
 N-N= 1.972867521295D+03 E-N=-6.631180672039D+03  KE= 1.145576237566D+03
 1\1\GINC-NODE2\SP\RwB97XD\6-311++G(d,p)\C20H20O5\ZHOUJUNSU\11-Jul-2023
 \0\\# wb97xd/6-311++G(d,p) integral(ultrafinegrid) guess=read geom=che
 ck scrf=(cpcm,read,solvent=water)\\Candidate Structure: MaDA-TS-1, Con
 former: 1, Single-point energies calculated with wB97X-D/6-311++G(d,p)
 \\0,1\C,0,6.7336474619,0.503693481,0.0940193889\C,0,6.9444908948,-0.86
 80668162,0.2129365606\C,0,5.8576230168,-1.7504443557,0.2606951141\C,0,
 4.5749082442,-1.2394156112,0.1867432648\C,0,4.3178206613,0.1352616724,
 0.0646003042\C,0,5.4351932819,0.9996206162,0.0217916155\H,0,7.58900560
 59,1.1716620091,0.0581682359\H,0,6.0212232444,-2.8193806058,0.35727479
 55\H,0,3.7418284463,-1.9335637443,0.230654031\O,0,8.2270695226,-1.2887
 328682,0.2792072806\H,0,8.2517894328,-2.251903052,0.3596614596\O,0,5.1
 944021598,2.3262162489,-0.0954675438\H,0,6.0298145404,2.8118659843,-0.
 107763862\C,0,2.9768104448,0.6941132214,-0.0123744081\H,0,2.9143722666
 ,1.7783351131,-0.045482223\C,0,1.8112375899,0.0191363522,-0.049844905\
 H,0,1.7923868454,-1.0628336085,-0.0279117695\C,0,0.538459775,0.7528814
 157,-0.1154844435\O,0,0.5453876395,2.0015023733,-0.0646859598\C,0,-0.7
 345232325,0.0236645139,-0.2303750761\C,0,-0.8032557247,-1.3770274059,-
 0.3637280342\C,0,-1.9615356205,0.7435398878,-0.2149172698\C,0,-2.00541
 29647,-2.0382551449,-0.4544576183\H,0,0.10430659,-1.9671565899,-0.4011
 395845\C,0,-3.201427576,0.0884677819,-0.3024845351\C,0,-3.2023656613,-
 1.3052149224,-0.414734328\H,0,-2.0526186006,-3.1170926432,-0.550911305
 6\O,0,-1.9805167434,2.0800469216,-0.1228395547\H,0,-1.0279642823,2.363
 8606786,-0.0865723805\O,0,-4.3452613286,-2.017150883,-0.5106548238\H,0
 ,-5.0990867466,-1.4579113428,-0.2475154247\C,0,-4.4921998983,0.8838765
 741,-0.3224146437\H,0,-4.2498817537,1.9282226389,-0.1061654497\H,0,-4.
 909495664,0.8703962409,-1.3357472765\C,0,-5.5036740991,0.3977590178,0.
 6883927108\H,0,-5.1120493954,0.301104033,1.7016274299\C,0,-6.794556523
 1,0.088964109,0.4876043657\C,0,-7.5097354287,0.170011751,-0.8362862564
 \H,0,-7.9930888031,-0.7872433841,-1.0654825096\H,0,-8.3072555848,0.921
 2615988,-0.7833725554\H,0,-6.8581704318,0.4312998031,-1.6722891468\C,0
 ,-7.6615180668,-0.3647278895,1.634563537\H,0,-7.1065303908,-0.40956290
 35,2.5757674692\H,0,-8.51060066,0.3175058539,1.7663537949\H,0,-8.08261
 84834,-1.3572431207,1.4324285296\\Version=ES64L-G16RevA.03\State=1-A\H
 F=-1150.2410143\RMSD=4.141e-09\Dipole=1.0700974,-1.6890751,0.2254969\Q
 uadrupole=34.2813164,-12.8571945,-21.4241219,-8.1188527,0.1337752,-1.9
 86396\PG=C01 [X(C20H20O5)]\\@


 I LOVE MANKIND - IT'S PEOPLE I CAN'T STAND.
     -- LINUS OF PEANUTS
 Job cpu time:       0 days  2 hours 49 minutes 48.7 seconds.
 Elapsed time:       0 days  0 hours 12 minutes 11.7 seconds.
 File lengths (MBytes):  RWF=    356 Int=      0 D2E=      0 Chk=     44 Scr=      2
 Normal termination of Gaussian 16 at Tue Jul 11 13:53:36 2023.
