 Entering Gaussian System, Link 0=g16
 Input=MaDA-1-energy-conf-1.com
 Output=MaDA-1-energy-conf-1.log
 Initial command:
 /public/home/zhoujunsu/g16/l1.exe "/public/home/zhoujunsu/g16/scratch/Gau-15363.inp" -scrdir="/public/home/zhoujunsu/g16/scratch/"
 Entering Link 1 = /public/home/zhoujunsu/g16/l1.exe PID=     15364.
  
 Copyright (c) 1988,1990,1992,1993,1995,1998,2003,2009,2016,
            Gaussian, Inc.  All Rights Reserved.
  
 This is part of the Gaussian(R) 16 program.  It is based on
 the Gaussian(R) 09 system (copyright 2009, Gaussian, Inc.),
 the Gaussian(R) 03 system (copyright 2003, Gaussian, Inc.),
 the Gaussian(R) 98 system (copyright 1998, Gaussian, Inc.),
 the Gaussian(R) 94 system (copyright 1995, Gaussian, Inc.),
 the Gaussian 92(TM) system (copyright 1992, Gaussian, Inc.),
 the Gaussian 90(TM) system (copyright 1990, Gaussian, Inc.),
 the Gaussian 88(TM) system (copyright 1988, Gaussian, Inc.),
 the Gaussian 86(TM) system (copyright 1986, Carnegie Mellon
 University), and the Gaussian 82(TM) system (copyright 1983,
 Carnegie Mellon University). Gaussian is a federally registered
 trademark of Gaussian, Inc.
  
 This software contains proprietary and confidential information,
 including trade secrets, belonging to Gaussian, Inc.
  
 This software is provided under written license and may be
 used, copied, transmitted, or stored only in accord with that
 written license.
  
 The following legend is applicable only to US Government
 contracts under FAR:
  
                    RESTRICTED RIGHTS LEGEND
  
 Use, reproduction and disclosure by the US Government is
 subject to restrictions as set forth in subparagraphs (a)
 and (c) of the Commercial Computer Software - Restricted
 Rights clause in FAR 52.227-19.
  
 Gaussian, Inc.
 340 Quinnipiac St., Bldg. 40, Wallingford CT 06492
  
  
 ---------------------------------------------------------------
 Warning -- This program may not be used in any manner that
 competes with the business of Gaussian, Inc. or will provide
 assistance to any competitor of Gaussian, Inc.  The licensee
 of this program is prohibited from giving any competitor of
 Gaussian, Inc. access to this program.  By using this program,
 the user acknowledges that Gaussian, Inc. is engaged in the
 business of creating and licensing software in the field of
 computational chemistry and represents and warrants to the
 licensee that it is not a competitor of Gaussian, Inc. and that
 it will not use this program in any manner prohibited above.
 ---------------------------------------------------------------
  

 Cite this work as:
 Gaussian 16, Revision A.03,
 M. J. Frisch, G. W. Trucks, H. B. Schlegel, G. E. Scuseria, 
 M. A. Robb, J. R. Cheeseman, G. Scalmani, V. Barone, 
 G. A. Petersson, H. Nakatsuji, X. Li, M. Caricato, A. V. Marenich, 
 J. Bloino, B. G. Janesko, R. Gomperts, B. Mennucci, H. P. Hratchian, 
 J. V. Ortiz, A. F. Izmaylov, J. L. Sonnenberg, D. Williams-Young, 
 F. Ding, F. Lipparini, F. Egidi, J. Goings, B. Peng, A. Petrone, 
 T. Henderson, D. Ranasinghe, V. G. Zakrzewski, J. Gao, N. Rega, 
 G. Zheng, W. Liang, M. Hada, M. Ehara, K. Toyota, R. Fukuda, 
 J. Hasegawa, M. Ishida, T. Nakajima, Y. Honda, O. Kitao, H. Nakai, 
 T. Vreven, K. Throssell, J. A. Montgomery, Jr., J. E. Peralta, 
 F. Ogliaro, M. J. Bearpark, J. J. Heyd, E. N. Brothers, K. N. Kudin, 
 V. N. Staroverov, T. A. Keith, R. Kobayashi, J. Normand, 
 K. Raghavachari, A. P. Rendell, J. C. Burant, S. S. Iyengar, 
 J. Tomasi, M. Cossi, J. M. Millam, M. Klene, C. Adamo, R. Cammi, 
 J. W. Ochterski, R. L. Martin, K. Morokuma, O. Farkas, 
 J. B. Foresman, and D. J. Fox, Gaussian, Inc., Wallingford CT, 2016.
 
 ******************************************
 Gaussian 16:  ES64L-G16RevA.03 25-Dec-2016
                11-Jul-2023 
 ******************************************
 %mem=56gb
 %nproc=56
 Will use up to   56 processors via shared memory.
 %chk=MaDA-1-conf-1.chk
 ----------------------------------------------------------------------
 # wb97xd/6-311++G(d,p) integral(ultrafinegrid) guess=read geom=check s
 crf=(cpcm,read,solvent=water)
 ----------------------------------------------------------------------
 1/29=2,38=1,40=2,172=1/1;
 2/12=2,40=1/2;
 3/5=4,6=6,7=1111,11=2,14=-4,25=1,30=1,70=2103,72=1,74=-58,75=-5,116=-2/1,2,3;
 4/5=1/1;
 5/5=2,38=6,53=1/2;
 6/7=2,8=2,9=2,10=2,28=1/1;
 99/5=1,9=1/99;
 ----------------------------------------------------------------------
 Candidate Structure: MaDA-TS-1, Conformer: 1, Single-point energies ca
 lculated with wB97X-D/6-311++G(d,p)
 ----------------------------------------------------------------------
 Structure from the checkpoint file:  "MaDA-1-conf-1.chk"
 Charge =  0 Multiplicity = 1
 Redundant internal coordinates found in file.  (old form).
 C,0,-6.4469568132,1.9338240292,-1.585578503
 C,0,-7.3591225334,0.9253555097,-1.8962122328
 C,0,-7.3279397157,-0.2810306159,-1.201334998
 C,0,-6.3784528136,-0.4611753175,-0.1975086127
 C,0,-5.4532704322,0.5216210045,0.1438385092
 C,0,-5.5085089981,1.7268898539,-0.5803146421
 H,0,-6.48021189,2.8706795681,-2.1345380486
 H,0,-8.0337230428,-1.0723696599,-1.4373863023
 H,0,-6.3644613149,-1.4102926626,0.3287438861
 O,0,-8.2515982554,1.1852356474,-2.8882371756
 H,0,-8.8232562327,0.4162535525,-3.0129188157
 O,0,-4.5986876189,2.6876673969,-0.2527829583
 H,0,-4.7377522582,3.4685685585,-0.8045106466
 C,0,-4.3877805421,0.3536304808,1.2155502259
 H,0,-4.332854716,1.3023903859,1.7613162074
 C,0,-3.0180416393,0.1483084164,0.5248318834
 H,0,-2.9634503827,0.8405746785,-0.3116511833
 C,0,-1.8333654528,0.4051832601,1.4419847442
 O,0,-1.8050130499,-0.1474197004,2.5544554767
 C,0,-0.6807983685,1.170917122,0.9547035977
 C,0,-0.7464222283,2.0216454483,-0.1660479281
 C,0,0.5958620984,0.9324924142,1.5320083487
 C,0,0.3841691973,2.5863877578,-0.7071878059
 H,0,-1.7090067856,2.2633489852,-0.6027224969
 C,0,1.7673100249,1.4521781961,0.9608273363
 C,0,1.6400799347,2.2745703955,-0.1616019813
 H,0,0.3322151395,3.2541451979,-1.5597930931
 O,0,0.7351703841,0.1599948607,2.6192249677
 H,0,-0.1755875892,-0.1096593309,2.8915134679
 O,0,2.7138104363,2.8118812932,-0.7804563333
 H,0,3.5036882361,2.69731365,-0.2220875434
 C,0,1.3202061895,-1.4717468805,-1.0686691394
 C,0,0.4045517687,-0.8910710515,-1.9503532976
 C,0,0.8620903127,-2.1432761067,0.0592395238
 C,0,-0.9474035515,-0.9226406601,-1.6438130413
 H,0,0.7441308066,-0.3759827213,-2.8437430285
 C,0,-0.5013918902,-2.1560480631,0.3597175716
 H,0,1.5528320044,-2.5822893704,0.7689170641
 C,0,-1.440395812,-1.5368837411,-0.4803464222
 O,0,-0.8310490067,-2.7542220205,1.533587472
 H,0,-1.7533939621,-2.5434006584,1.7612259913
 O,0,-1.8648806281,-0.3033666839,-2.4366112553
 H,0,-1.4103147405,0.1448652367,-3.1616981654
 C,0,-2.8922351021,-1.279425087,-0.1010453044
 H,0,-3.4606724039,-1.2375083044,-1.0379147149
 C,0,-3.5242394946,-2.361111449,0.7381662273
 H,0,-3.3306701857,-3.384451112,0.416145708
 C,0,-4.3453460944,-2.1441923292,1.7718170872
 C,0,-4.6940438257,-0.7527000201,2.2335166832
 H,0,-5.7574107295,-0.7178232799,2.5029103818
 H,0,-4.1399174268,-0.553089447,3.1569111416
 C,0,-4.9731854446,-3.2704373414,2.5440323049
 H,0,-4.6272979473,-4.2476980458,2.1954019709
 H,0,-4.7412826894,-3.1810168801,3.6125963945
 H,0,-6.0663735143,-3.2371807753,2.4545084153
 C,0,4.8369512812,-0.6794826545,-1.8376235078
 C,0,4.8654000737,-1.6823826236,-0.8594629317
 C,0,6.0264382847,-2.2013453115,-0.3071179539
 C,0,7.2217080391,-1.6667450148,-0.7811167428
 C,0,7.2341216895,-0.6619315268,-1.7694415498
 C,0,6.0531623713,-0.1652607804,-2.2989046837
 C,0,3.4418934036,-0.4420046224,-2.0995598002
 C,0,2.7500163776,-1.2924084687,-1.2990859082
 H,0,6.0178126728,-2.9747805384,0.4518655313
 H,0,8.1874171597,-0.270700065,-2.1149762
 H,0,6.0792031232,0.612872304,-3.0549204255
 H,0,3.0197578725,0.2933506534,-2.7686827035
 O,0,8.3713678908,-2.1612244489,-0.248930259
 H,0,9.1298966159,-1.7129323444,-0.6449541607
 O,0,3.6018290689,-2.0580858871,-0.5330961031
 C,0,3.1273326491,1.0924498462,1.5221461546
 H,0,2.9768865259,0.5176767739,2.4404086289
 H,0,3.6385235159,0.4228180459,0.8199277936
 C,0,3.9719662344,2.3089710072,1.8247262928
 H,0,3.4352831312,3.1114549017,2.3325532157
 C,0,5.2713112121,2.5039425404,1.5529632202
 C,0,6.1741002612,1.5009918018,0.8861930507
 H,0,6.6195180591,1.9264977476,-0.0207482654
 H,0,7.0057366236,1.2472839298,1.5554277192
 H,0,5.6726899336,0.5723859836,0.6094071247
 C,0,5.9489695001,3.7950339531,1.9360123717
 H,0,5.2576386622,4.4977140976,2.409821891
 H,0,6.7770026913,3.6036339075,2.6300141743
 H,0,6.3838866659,4.2792692087,1.0528271079
 Recover connectivity data from disk.
                           ----------------------------
                           !    Current Parameters    !
                           ! (Angstroms and Degrees)  !
 --------------------------                            --------------------------
 ! Name  Definition              Value                                          !
 --------------------------------------------------------------------------------
 ! R1    R(1,2)                  1.3948                                         !
 ! R2    R(1,6)                  1.3907                                         !
 ! R3    R(1,7)                  1.0864                                         !
 ! R4    R(2,3)                  1.3925                                         !
 ! R5    R(2,10)                 1.3595                                         !
 ! R6    R(3,4)                  1.3934                                         !
 ! R7    R(3,8)                  1.0863                                         !
 ! R8    R(4,5)                  1.3923                                         !
 ! R9    R(4,9)                  1.0853                                         !
 ! R10   R(5,6)                  1.4072                                         !
 ! R11   R(5,14)                 1.5205                                         !
 ! R12   R(6,12)                 1.3631                                         !
 ! R13   R(10,11)                0.9663                                         !
 ! R14   R(12,13)                0.9662                                         !
 ! R15   R(14,15)                1.0959                                         !
 ! R16   R(14,16)                1.5477                                         !
 ! R17   R(14,49)                1.5343                                         !
 ! R18   R(16,17)                1.0872                                         !
 ! R19   R(16,18)                1.5201                                         !
 ! R20   R(16,44)                1.564                                          !
 ! R21   R(18,19)                1.2425                                         !
 ! R22   R(18,20)                1.467                                          !
 ! R23   R(20,21)                1.4086                                         !
 ! R24   R(20,22)                1.4213                                         !
 ! R25   R(21,23)                1.3748                                         !
 ! R26   R(21,24)                1.0843                                         !
 ! R27   R(22,25)                1.4031                                         !
 ! R28   R(22,28)                1.341                                          !
 ! R29   R(23,26)                1.4044                                         !
 ! R30   R(23,27)                1.0842                                         !
 ! R31   R(25,26)                1.3973                                         !
 ! R32   R(25,71)                1.5146                                         !
 ! R33   R(26,30)                1.3508                                         !
 ! R34   R(28,29)                0.9881                                         !
 ! R35   R(30,31)                0.9741                                         !
 ! R36   R(32,33)                1.3975                                         !
 ! R37   R(32,34)                1.3903                                         !
 ! R38   R(32,63)                1.4593                                         !
 ! R39   R(33,35)                1.3866                                         !
 ! R40   R(33,36)                1.0857                                         !
 ! R41   R(34,37)                1.3963                                         !
 ! R42   R(34,38)                1.0833                                         !
 ! R43   R(35,39)                1.405                                          !
 ! R44   R(35,42)                1.3615                                         !
 ! R45   R(37,39)                1.4039                                         !
 ! R46   R(37,40)                1.3581                                         !
 ! R47   R(39,44)                1.5225                                         !
 ! R48   R(40,41)                0.9731                                         !
 ! R49   R(42,43)                0.9661                                         !
 ! R50   R(44,45)                1.0966                                         !
 ! R51   R(44,46)                1.5079                                         !
 ! R52   R(46,47)                1.0901                                         !
 ! R53   R(46,48)                1.3378                                         !
 ! R54   R(48,49)                1.507                                          !
 ! R55   R(48,52)                1.503                                          !
 ! R56   R(49,50)                1.0975                                         !
 ! R57   R(49,51)                1.0952                                         !
 ! R58   R(52,53)                1.0937                                         !
 ! R59   R(52,54)                1.0971                                         !
 ! R60   R(52,55)                1.0974                                         !
 ! R61   R(56,57)                1.4012                                         !
 ! R62   R(56,61)                1.3987                                         !
 ! R63   R(56,62)                1.4392                                         !
 ! R64   R(57,58)                1.3865                                         !
 ! R65   R(57,70)                1.358                                          !
 ! R66   R(58,59)                1.3925                                         !
 ! R67   R(58,64)                1.0837                                         !
 ! R68   R(59,60)                1.4095                                         !
 ! R69   R(59,68)                1.3599                                         !
 ! R70   R(60,61)                1.3862                                         !
 ! R71   R(60,65)                1.0868                                         !
 ! R72   R(61,66)                1.0852                                         !
 ! R73   R(62,63)                1.3574                                         !
 ! R74   R(62,67)                1.0801                                         !
 ! R75   R(63,70)                1.3779                                         !
 ! R76   R(68,69)                0.966                                          !
 ! R77   R(71,72)                1.0937                                         !
 ! R78   R(71,73)                1.0967                                         !
 ! R79   R(71,74)                1.5116                                         !
 ! R80   R(74,75)                1.0908                                         !
 ! R81   R(74,76)                1.3417                                         !
 ! R82   R(76,77)                1.5052                                         !
 ! R83   R(76,81)                1.5076                                         !
 ! R84   R(77,78)                1.0964                                         !
 ! R85   R(77,79)                1.0972                                         !
 ! R86   R(77,80)                1.091                                          !
 ! R87   R(81,82)                1.0937                                         !
 ! R88   R(81,83)                1.0972                                         !
 ! R89   R(81,84)                1.0971                                         !
 ! A1    A(2,1,6)              119.6495                                         !
 ! A2    A(2,1,7)              119.4033                                         !
 ! A3    A(6,1,7)              120.9473                                         !
 ! A4    A(1,2,3)              120.0382                                         !
 ! A5    A(1,2,10)             116.9759                                         !
 ! A6    A(3,2,10)             122.9858                                         !
 ! A7    A(2,3,4)              119.1261                                         !
 ! A8    A(2,3,8)              120.5375                                         !
 ! A9    A(4,3,8)              120.3364                                         !
 ! A10   A(3,4,5)              122.5593                                         !
 ! A11   A(3,4,9)              118.1085                                         !
 ! A12   A(5,4,9)              119.3313                                         !
 ! A13   A(4,5,6)              116.8954                                         !
 ! A14   A(4,5,14)             124.0881                                         !
 ! A15   A(6,5,14)             119.0026                                         !
 ! A16   A(1,6,5)              121.7306                                         !
 ! A17   A(1,6,12)             121.2785                                         !
 ! A18   A(5,6,12)             116.9908                                         !
 ! A19   A(2,10,11)            109.2939                                         !
 ! A20   A(6,12,13)            109.6567                                         !
 ! A21   A(5,14,15)            106.8865                                         !
 ! A22   A(5,14,16)            108.6784                                         !
 ! A23   A(5,14,49)            114.0432                                         !
 ! A24   A(15,14,16)           107.0222                                         !
 ! A25   A(15,14,49)           107.6885                                         !
 ! A26   A(16,14,49)           112.1541                                         !
 ! A27   A(14,16,17)           107.6586                                         !
 ! A28   A(14,16,18)           113.4561                                         !
 ! A29   A(14,16,44)           111.7707                                         !
 ! A30   A(17,16,18)           108.5117                                         !
 ! A31   A(17,16,44)           105.6256                                         !
 ! A32   A(18,16,44)           109.4531                                         !
 ! A33   A(16,18,19)           118.8719                                         !
 ! A34   A(16,18,20)           120.0061                                         !
 ! A35   A(19,18,20)           120.7714                                         !
 ! A36   A(18,20,21)           122.8825                                         !
 ! A37   A(18,20,22)           118.8966                                         !
 ! A38   A(21,20,22)           117.7978                                         !
 ! A39   A(20,21,23)           121.5318                                         !
 ! A40   A(20,21,24)           119.7637                                         !
 ! A41   A(23,21,24)           118.6844                                         !
 ! A42   A(20,22,25)           121.4986                                         !
 ! A43   A(20,22,28)           121.2842                                         !
 ! A44   A(25,22,28)           117.174                                          !
 ! A45   A(21,23,26)           119.4278                                         !
 ! A46   A(21,23,27)           121.5422                                         !
 ! A47   A(26,23,27)           119.0195                                         !
 ! A48   A(22,25,26)           117.9691                                         !
 ! A49   A(22,25,71)           120.7205                                         !
 ! A50   A(26,25,71)           121.2817                                         !
 ! A51   A(23,26,25)           121.6141                                         !
 ! A52   A(23,26,30)           116.3958                                         !
 ! A53   A(25,26,30)           121.9901                                         !
 ! A54   A(22,28,29)           106.5517                                         !
 ! A55   A(26,30,31)           109.5834                                         !
 ! A56   A(33,32,34)           119.777                                          !
 ! A57   A(33,32,63)           119.4251                                         !
 ! A58   A(34,32,63)           120.6831                                         !
 ! A59   A(32,33,35)           119.3337                                         !
 ! A60   A(32,33,36)           120.7535                                         !
 ! A61   A(35,33,36)           119.8452                                         !
 ! A62   A(32,34,37)           120.051                                          !
 ! A63   A(32,34,38)           121.1384                                         !
 ! A64   A(37,34,38)           118.5536                                         !
 ! A65   A(33,35,39)           122.3529                                         !
 ! A66   A(33,35,42)           121.193                                          !
 ! A67   A(39,35,42)           116.3969                                         !
 ! A68   A(34,37,39)           121.3567                                         !
 ! A69   A(34,37,40)           115.2819                                         !
 ! A70   A(39,37,40)           123.3067                                         !
 ! A71   A(35,39,37)           116.9783                                         !
 ! A72   A(35,39,44)           117.8383                                         !
 ! A73   A(37,39,44)           124.287                                          !
 ! A74   A(37,40,41)           109.6842                                         !
 ! A75   A(35,42,43)           109.3292                                         !
 ! A76   A(16,44,39)           109.3162                                         !
 ! A77   A(16,44,45)           105.3845                                         !
 ! A78   A(16,44,46)           113.4799                                         !
 ! A79   A(39,44,45)           106.7335                                         !
 ! A80   A(39,44,46)           114.647                                          !
 ! A81   A(45,44,46)           106.5964                                         !
 ! A82   A(44,46,47)           115.7581                                         !
 ! A83   A(44,46,48)           124.8165                                         !
 ! A84   A(47,46,48)           119.3034                                         !
 ! A85   A(46,48,49)           121.9014                                         !
 ! A86   A(46,48,52)           122.132                                          !
 ! A87   A(49,48,52)           115.9665                                         !
 ! A88   A(14,49,48)           114.6044                                         !
 ! A89   A(14,49,50)           109.4719                                         !
 ! A90   A(14,49,51)           109.0848                                         !
 ! A91   A(48,49,50)           109.1918                                         !
 ! A92   A(48,49,51)           108.0302                                         !
 ! A93   A(50,49,51)           106.1088                                         !
 ! A94   A(48,52,53)           111.9424                                         !
 ! A95   A(48,52,54)           110.5519                                         !
 ! A96   A(48,52,55)           110.5804                                         !
 ! A97   A(53,52,54)           108.4483                                         !
 ! A98   A(53,52,55)           108.4287                                         !
 ! A99   A(54,52,55)           106.7124                                         !
 ! A100  A(57,56,61)           118.4049                                         !
 ! A101  A(57,56,62)           105.3574                                         !
 ! A102  A(61,56,62)           136.2355                                         !
 ! A103  A(56,57,58)           124.2628                                         !
 ! A104  A(56,57,70)           110.2966                                         !
 ! A105  A(58,57,70)           125.4395                                         !
 ! A106  A(57,58,59)           116.0699                                         !
 ! A107  A(57,58,64)           122.6488                                         !
 ! A108  A(59,58,64)           121.281                                          !
 ! A109  A(58,59,60)           121.3275                                         !
 ! A110  A(58,59,68)           116.9252                                         !
 ! A111  A(60,59,68)           121.7471                                         !
 ! A112  A(59,60,61)           121.0468                                         !
 ! A113  A(59,60,65)           119.162                                          !
 ! A114  A(61,60,65)           119.7906                                         !
 ! A115  A(56,61,60)           118.8867                                         !
 ! A116  A(56,61,66)           120.9451                                         !
 ! A117  A(60,61,66)           120.1675                                         !
 ! A118  A(56,62,63)           106.4614                                         !
 ! A119  A(56,62,67)           127.1522                                         !
 ! A120  A(63,62,67)           126.343                                          !
 ! A121  A(32,63,62)           132.0273                                         !
 ! A122  A(32,63,70)           116.7202                                         !
 ! A123  A(62,63,70)           111.1526                                         !
 ! A124  A(59,68,69)           109.5506                                         !
 ! A125  A(57,70,63)           106.7302                                         !
 ! A126  A(25,71,72)           108.2066                                         !
 ! A127  A(25,71,73)           109.0411                                         !
 ! A128  A(25,71,74)           112.6298                                         !
 ! A129  A(72,71,73)           106.3088                                         !
 ! A130  A(72,71,74)           109.3745                                         !
 ! A131  A(73,71,74)           111.0453                                         !
 ! A132  A(71,74,75)           114.2261                                         !
 ! A133  A(71,74,76)           128.1366                                         !
 ! A134  A(75,74,76)           117.6363                                         !
 ! A135  A(74,76,77)           125.0126                                         !
 ! A136  A(74,76,81)           120.5498                                         !
 ! A137  A(77,76,81)           114.4308                                         !
 ! A138  A(76,77,78)           110.5804                                         !
 ! A139  A(76,77,79)           109.7854                                         !
 ! A140  A(76,77,80)           113.8206                                         !
 ! A141  A(78,77,79)           106.6409                                         !
 ! A142  A(78,77,80)           107.8895                                         !
 ! A143  A(79,77,80)           107.8347                                         !
 ! A144  A(76,81,82)           112.0957                                         !
 ! A145  A(76,81,83)           110.5199                                         !
 ! A146  A(76,81,84)           110.5876                                         !
 ! A147  A(82,81,83)           108.3658                                         !
 ! A148  A(82,81,84)           108.4059                                         !
 ! A149  A(83,81,84)           106.6786                                         !
 ! D1    D(6,1,2,3)              0.0179                                         !
 ! D2    D(6,1,2,10)          -179.9602                                         !
 ! D3    D(7,1,2,3)            179.9697                                         !
 ! D4    D(7,1,2,10)            -0.0085                                         !
 ! D5    D(2,1,6,5)             -0.2452                                         !
 ! D6    D(2,1,6,12)           179.7631                                         !
 ! D7    D(7,1,6,5)            179.8038                                         !
 ! D8    D(7,1,6,12)            -0.1879                                         !
 ! D9    D(1,2,3,4)              0.0723                                         !
 ! D10   D(1,2,3,8)           -179.9263                                         !
 ! D11   D(10,2,3,4)          -179.9508                                         !
 ! D12   D(10,2,3,8)             0.0506                                         !
 ! D13   D(1,2,10,11)          179.7628                                         !
 ! D14   D(3,2,10,11)           -0.2147                                         !
 ! D15   D(2,3,4,5)              0.0621                                         !
 ! D16   D(2,3,4,9)           -179.5816                                         !
 ! D17   D(8,3,4,5)           -179.9393                                         !
 ! D18   D(8,3,4,9)              0.417                                          !
 ! D19   D(3,4,5,6)             -0.2741                                         !
 ! D20   D(3,4,5,14)          -178.8989                                         !
 ! D21   D(9,4,5,6)            179.3654                                         !
 ! D22   D(9,4,5,14)             0.7405                                         !
 ! D23   D(4,5,6,1)              0.3654                                         !
 ! D24   D(4,5,6,12)          -179.6425                                         !
 ! D25   D(14,5,6,1)           179.0633                                         !
 ! D26   D(14,5,6,12)           -0.9447                                         !
 ! D27   D(4,5,14,15)         -139.6252                                         !
 ! D28   D(4,5,14,16)          105.1883                                         !
 ! D29   D(4,5,14,49)          -20.7351                                         !
 ! D30   D(6,5,14,15)           41.7771                                         !
 ! D31   D(6,5,14,16)          -73.4094                                         !
 ! D32   D(6,5,14,49)          160.6672                                         !
 ! D33   D(1,6,12,13)            0.6451                                         !
 ! D34   D(5,6,12,13)         -179.347                                          !
 ! D35   D(5,14,16,17)          41.6399                                         !
 ! D36   D(5,14,16,18)         161.7287                                         !
 ! D37   D(5,14,16,44)         -73.924                                          !
 ! D38   D(15,14,16,17)        -73.4584                                         !
 ! D39   D(15,14,16,18)         46.6304                                         !
 ! D40   D(15,14,16,44)        170.9777                                         !
 ! D41   D(49,14,16,17)        168.6535                                         !
 ! D42   D(49,14,16,18)        -71.2577                                         !
 ! D43   D(49,14,16,44)         53.0895                                         !
 ! D44   D(5,14,49,48)          81.5916                                         !
 ! D45   D(5,14,49,50)         -41.4607                                         !
 ! D46   D(5,14,49,51)        -157.1657                                         !
 ! D47   D(15,14,49,48)       -159.975                                          !
 ! D48   D(15,14,49,50)         76.9727                                         !
 ! D49   D(15,14,49,51)        -38.7324                                         !
 ! D50   D(16,14,49,48)        -42.4838                                         !
 ! D51   D(16,14,49,50)       -165.536                                          !
 ! D52   D(16,14,49,51)         78.7589                                         !
 ! D53   D(14,16,18,19)         50.3522                                         !
 ! D54   D(14,16,18,20)       -136.3933                                         !
 ! D55   D(17,16,18,19)        169.9555                                         !
 ! D56   D(17,16,18,20)        -16.79                                           !
 ! D57   D(44,16,18,19)        -75.2414                                         !
 ! D58   D(44,16,18,20)         98.0131                                         !
 ! D59   D(14,16,44,39)       -167.2729                                         !
 ! D60   D(14,16,44,45)         78.3413                                         !
 ! D61   D(14,16,44,46)        -37.923                                          !
 ! D62   D(17,16,44,39)         75.9271                                         !
 ! D63   D(17,16,44,45)        -38.4586                                         !
 ! D64   D(17,16,44,46)       -154.723                                          !
 ! D65   D(18,16,44,39)        -40.7156                                         !
 ! D66   D(18,16,44,45)       -155.1014                                         !
 ! D67   D(18,16,44,46)         88.6343                                         !
 ! D68   D(16,18,20,21)         19.4279                                         !
 ! D69   D(16,18,20,22)       -152.9361                                         !
 ! D70   D(19,18,20,21)       -167.4476                                         !
 ! D71   D(19,18,20,22)         20.1884                                         !
 ! D72   D(18,20,21,23)       -171.1793                                         !
 ! D73   D(18,20,21,24)         10.4723                                         !
 ! D74   D(22,20,21,23)          1.2637                                         !
 ! D75   D(22,20,21,24)       -177.0847                                         !
 ! D76   D(18,20,22,25)        168.6975                                         !
 ! D77   D(18,20,22,28)         -8.8444                                         !
 ! D78   D(21,20,22,25)         -4.0554                                         !
 ! D79   D(21,20,22,28)        178.4026                                         !
 ! D80   D(20,21,23,26)          2.2124                                         !
 ! D81   D(20,21,23,27)       -178.9801                                         !
 ! D82   D(24,21,23,26)       -179.4218                                         !
 ! D83   D(24,21,23,27)         -0.6144                                         !
 ! D84   D(20,22,25,26)          3.238                                          !
 ! D85   D(20,22,25,71)       -174.8374                                         !
 ! D86   D(28,22,25,26)       -179.1232                                         !
 ! D87   D(28,22,25,71)          2.8014                                         !
 ! D88   D(20,22,28,29)         -2.8602                                         !
 ! D89   D(25,22,28,29)        179.4957                                         !
 ! D90   D(21,23,26,25)         -3.0903                                         !
 ! D91   D(21,23,26,30)        176.8964                                         !
 ! D92   D(27,23,26,25)        178.0719                                         !
 ! D93   D(27,23,26,30)         -1.9413                                         !
 ! D94   D(22,25,26,23)          0.3767                                         !
 ! D95   D(22,25,26,30)       -179.6093                                         !
 ! D96   D(71,25,26,23)        178.4407                                         !
 ! D97   D(71,25,26,30)         -1.5453                                         !
 ! D98   D(22,25,71,72)         -6.7928                                         !
 ! D99   D(22,25,71,73)        108.4365                                         !
 ! D100  D(22,25,71,74)       -127.8216                                         !
 ! D101  D(26,25,71,72)        175.1962                                         !
 ! D102  D(26,25,71,73)        -69.5745                                         !
 ! D103  D(26,25,71,74)         54.1674                                         !
 ! D104  D(23,26,30,31)        167.8408                                         !
 ! D105  D(25,26,30,31)        -12.1725                                         !
 ! D106  D(34,32,33,35)          3.9287                                         !
 ! D107  D(34,32,33,36)       -179.067                                          !
 ! D108  D(63,32,33,35)       -172.204                                          !
 ! D109  D(63,32,33,36)          4.8003                                         !
 ! D110  D(33,32,34,37)         -4.5199                                         !
 ! D111  D(33,32,34,38)       -178.6125                                         !
 ! D112  D(63,32,34,37)        171.5633                                         !
 ! D113  D(63,32,34,38)         -2.5293                                         !
 ! D114  D(33,32,63,62)         14.1745                                         !
 ! D115  D(33,32,63,70)       -169.8369                                         !
 ! D116  D(34,32,63,62)       -161.9223                                         !
 ! D117  D(34,32,63,70)         14.0663                                         !
 ! D118  D(32,33,35,39)         -0.9032                                         !
 ! D119  D(32,33,35,42)        176.2432                                         !
 ! D120  D(36,33,35,39)       -177.9351                                         !
 ! D121  D(36,33,35,42)         -0.7887                                         !
 ! D122  D(32,34,37,39)          2.0835                                         !
 ! D123  D(32,34,37,40)       -175.3133                                         !
 ! D124  D(38,34,37,39)        176.3276                                         !
 ! D125  D(38,34,37,40)         -1.0692                                         !
 ! D126  D(33,35,39,37)         -1.4887                                         !
 ! D127  D(33,35,39,44)        168.1472                                         !
 ! D128  D(42,35,39,37)       -178.7637                                         !
 ! D129  D(42,35,39,44)         -9.1278                                         !
 ! D130  D(33,35,42,43)         -2.0762                                         !
 ! D131  D(39,35,42,43)        175.2328                                         !
 ! D132  D(34,37,39,35)          0.8988                                         !
 ! D133  D(34,37,39,44)       -168.0001                                         !
 ! D134  D(40,37,39,35)        178.0822                                         !
 ! D135  D(40,37,39,44)          9.1833                                         !
 ! D136  D(34,37,40,41)        167.1539                                         !
 ! D137  D(39,37,40,41)        -10.1862                                         !
 ! D138  D(35,39,44,16)        -76.5603                                         !
 ! D139  D(35,39,44,45)         36.9512                                         !
 ! D140  D(35,39,44,46)        154.7328                                         !
 ! D141  D(37,39,44,16)         92.2508                                         !
 ! D142  D(37,39,44,45)       -154.2377                                         !
 ! D143  D(37,39,44,46)        -36.4562                                         !
 ! D144  D(16,44,46,47)       -171.1881                                         !
 ! D145  D(16,44,46,48)         12.8725                                         !
 ! D146  D(39,44,46,47)        -44.5967                                         !
 ! D147  D(39,44,46,48)        139.4639                                         !
 ! D148  D(45,44,46,47)         73.2626                                         !
 ! D149  D(45,44,46,48)       -102.6768                                         !
 ! D150  D(44,46,48,49)         -1.8891                                         !
 ! D151  D(44,46,48,52)        178.2364                                         !
 ! D152  D(47,46,48,49)       -177.6951                                         !
 ! D153  D(47,46,48,52)          2.4304                                         !
 ! D154  D(46,48,49,14)         16.9716                                         !
 ! D155  D(46,48,49,50)        140.1744                                         !
 ! D156  D(46,48,49,51)       -104.8482                                         !
 ! D157  D(52,48,49,14)       -163.1466                                         !
 ! D158  D(52,48,49,50)        -39.9438                                         !
 ! D159  D(52,48,49,51)         75.0336                                         !
 ! D160  D(46,48,52,53)          3.4942                                         !
 ! D161  D(46,48,52,54)        124.5177                                         !
 ! D162  D(46,48,52,55)       -117.5241                                         !
 ! D163  D(49,48,52,53)       -176.3873                                         !
 ! D164  D(49,48,52,54)        -55.3638                                         !
 ! D165  D(49,48,52,55)         62.5944                                         !
 ! D166  D(61,56,57,58)          0.3112                                         !
 ! D167  D(61,56,57,70)        179.9482                                         !
 ! D168  D(62,56,57,58)       -179.2427                                         !
 ! D169  D(62,56,57,70)          0.3944                                         !
 ! D170  D(57,56,61,60)         -0.2325                                         !
 ! D171  D(57,56,61,66)       -179.9405                                         !
 ! D172  D(62,56,61,60)        179.1455                                         !
 ! D173  D(62,56,61,66)         -0.5625                                         !
 ! D174  D(57,56,62,63)         -0.4197                                         !
 ! D175  D(57,56,62,67)        177.2896                                         !
 ! D176  D(61,56,62,63)       -179.8523                                         !
 ! D177  D(61,56,62,67)         -2.143                                          !
 ! D178  D(56,57,58,59)         -0.0444                                         !
 ! D179  D(56,57,58,64)        179.7366                                         !
 ! D180  D(70,57,58,59)       -179.6266                                         !
 ! D181  D(70,57,58,64)          0.1544                                         !
 ! D182  D(56,57,70,63)         -0.2146                                         !
 ! D183  D(58,57,70,63)        179.4172                                         !
 ! D184  D(57,58,59,60)         -0.2951                                         !
 ! D185  D(57,58,59,68)        179.8588                                         !
 ! D186  D(64,58,59,60)        179.9206                                         !
 ! D187  D(64,58,59,68)          0.0746                                         !
 ! D188  D(58,59,60,61)          0.3718                                         !
 ! D189  D(58,59,60,65)       -179.9106                                         !
 ! D190  D(68,59,60,61)       -179.7896                                         !
 ! D191  D(68,59,60,65)         -0.072                                          !
 ! D192  D(58,59,68,69)       -179.4793                                         !
 ! D193  D(60,59,68,69)          0.6753                                         !
 ! D194  D(59,60,61,56)         -0.0925                                         !
 ! D195  D(59,60,61,66)        179.6179                                         !
 ! D196  D(65,60,61,56)       -179.8084                                         !
 ! D197  D(65,60,61,66)         -0.098                                          !
 ! D198  D(56,62,63,32)        176.4673                                         !
 ! D199  D(56,62,63,70)          0.3089                                         !
 ! D200  D(67,62,63,32)         -1.266                                          !
 ! D201  D(67,62,63,70)       -177.4244                                         !
 ! D202  D(32,63,70,57)       -176.8733                                         !
 ! D203  D(62,63,70,57)         -0.0673                                         !
 ! D204  D(25,71,74,75)         44.3547                                         !
 ! D205  D(25,71,74,76)       -136.0168                                         !
 ! D206  D(72,71,74,75)        -76.0047                                         !
 ! D207  D(72,71,74,76)        103.6239                                         !
 ! D208  D(73,71,74,75)        166.9784                                         !
 ! D209  D(73,71,74,76)        -13.3931                                         !
 ! D210  D(71,74,76,77)         -0.9357                                         !
 ! D211  D(71,74,76,81)       -179.9321                                         !
 ! D212  D(75,74,76,77)        178.6819                                         !
 ! D213  D(75,74,76,81)         -0.3144                                         !
 ! D214  D(74,76,77,78)        122.8316                                         !
 ! D215  D(74,76,77,79)       -119.7709                                         !
 ! D216  D(74,76,77,80)          1.2006                                         !
 ! D217  D(81,76,77,78)        -58.1177                                         !
 ! D218  D(81,76,77,79)         59.2797                                         !
 ! D219  D(81,76,77,80)       -179.7487                                         !
 ! D220  D(74,76,81,82)         -1.3338                                         !
 ! D221  D(74,76,81,83)        119.6664                                         !
 ! D222  D(74,76,81,84)       -122.4327                                         !
 ! D223  D(77,76,81,82)        179.569                                          !
 ! D224  D(77,76,81,83)        -59.4307                                         !
 ! D225  D(77,76,81,84)         58.4701                                         !
 --------------------------------------------------------------------------------
 Stoichiometry    C39H36O9
 Framework group  C1[X(C39H36O9)]
 Deg. of freedom   246
 Full point group                 C1      NOp   1
 Largest Abelian subgroup         C1      NOp   1
 Largest concise Abelian subgroup C1      NOp   1
                         Standard orientation:                         
 ---------------------------------------------------------------------
 Center     Atomic      Atomic             Coordinates (Angstroms)
 Number     Number       Type             X           Y           Z
 ---------------------------------------------------------------------
      1          6           0       -6.447849    1.952016   -1.576277
      2          6           0       -7.361288    0.946327   -1.892135
      3          6           0       -7.330893   -0.264113   -1.204308
      4          6           0       -6.380903   -0.451087   -0.202208
      5          6           0       -5.454453    0.528738    0.144205
      6          6           0       -5.508925    1.738256   -0.572888
      7          1           0       -6.480499    2.892083   -2.119755
      8          1           0       -8.037670   -1.053326   -1.444465
      9          1           0       -6.367545   -1.403264    0.318506
     10          8           0       -8.254176    1.212907   -2.882009
     11          1           0       -8.826727    0.445262   -3.010763
     12          8           0       -4.597869    2.696159   -0.240408
     13          1           0       -4.736494    3.480402   -0.787487
     14          6           0       -4.388400    0.353401    1.214178
     15          1           0       -4.332100    1.298913    1.765415
     16          6           0       -3.019355    0.150667    0.521323
     17          1           0       -2.964614    0.847730   -0.311157
     18          6           0       -1.833776    0.400963    1.439129
     19          8           0       -1.805236   -0.158131    2.548347
     20          6           0       -0.680742    1.168311    0.955506
     21          6           0       -0.746246    2.025613   -0.160232
     22          6           0        0.596066    0.925197    1.530525
     23          6           0        0.384564    2.592310   -0.698866
     24          1           0       -1.708878    2.270860   -0.594823
     25          6           0        1.767664    1.446970    0.961560
     26          6           0        1.640523    2.276010   -0.155979
     27          1           0        0.332722    3.265069   -1.547537
     28          8           0        0.735313    0.146243    2.613133
     29          1           0       -0.175539   -0.124038    2.884483
     30          8           0        2.714389    2.815787   -0.772446
     31          1           0        3.504532    2.697147   -0.215303
     32          6           0        1.316087   -1.464631   -1.084596
     33          6           0        0.400434   -0.877879   -1.962250
     34          6           0        0.858045   -2.142230    0.039707
     35          6           0       -0.951342   -0.909816   -1.654956
     36          1           0        0.739937   -0.357958   -2.852865
     37          6           0       -0.505242   -2.155323    0.341055
     38          1           0        1.548815   -2.586087    0.746337
     39          6           0       -1.444175   -1.530300   -0.494739
     40          8           0       -0.834717   -2.759969    1.511656
     41          1           0       -1.756682   -2.549510    1.741160
     42          8           0       -1.868715   -0.284981   -2.443500
     43          1           0       -1.414180    0.166985   -3.166284
     44          6           0       -2.895481   -1.273532   -0.112935
     45          1           0       -3.464521   -1.225572   -1.049148
     46          6           0       -3.528042   -2.359420    0.720412
     47          1           0       -3.335770   -3.381071    0.392310
     48          6           0       -4.348206   -2.147658    1.755879
     49          6           0       -4.695122   -0.758510    2.225906
     50          1           0       -5.758265   -0.724088    2.496239
     51          1           0       -4.140148   -0.564855    3.150060
     52          6           0       -4.976694   -3.277718    2.521968
     53          1           0       -4.632075   -4.253296    2.167419
     54          1           0       -4.743960   -3.194757    3.590872
     55          1           0       -6.069908   -3.242797    2.433401
     56          6           0        4.833130   -0.671589   -1.851380
     57          6           0        4.861201   -1.680191   -0.879089
     58          6           0        6.022074   -2.203572   -0.330581
     59          6           0        7.217577   -1.667475   -0.802296
     60          6           0        7.230364   -0.656943   -1.784768
     61          6           0        6.049562   -0.155965   -2.310511
     62          6           0        3.438142   -0.431131   -2.110959
     63          6           0        2.745925   -1.285452   -1.314962
     64          1           0        6.013161   -2.981400    0.423897
     65          1           0        8.183831   -0.264707   -2.128686
     66          1           0        6.075898    0.626524   -3.062006
     67          1           0        3.016317    0.308545   -2.775499
     68          8           0        8.367085   -2.166245   -0.273796
     69          1           0        9.125810   -1.716451   -0.667734
     70          8           0        3.597462   -2.056463   -0.554033
     71          6           0        3.127695    1.082559    1.519829
     72          1           0        2.977280    0.502612    2.434837
     73          1           0        3.637697    0.416489    0.813372
     74          6           0        3.973815    2.296415    1.828890
     75          1           0        3.438327    3.096493    2.341750
     76          6           0        5.273177    2.491604    1.557360
     77          6           0        6.174451    1.491604    0.884139
     78          1           0        6.619689    1.921912   -0.020622
     79          1           0        7.006282    1.233138    1.551307
     80          1           0        5.671874    0.565150    0.602307
     81          6           0        5.952455    3.779735    1.947440
     82          1           0        5.262191    4.480371    2.425810
     83          1           0        6.780766    3.583435    2.639739
     84          1           0        6.387271    4.268644    1.066783
 ---------------------------------------------------------------------
 Rotational constants (GHZ):           0.1425371           0.0348606           0.0336012
 Standard basis: 6-311++G(d,p) (5D, 7F)
 There are  1356 symmetry adapted cartesian basis functions of A   symmetry.
 There are  1308 symmetry adapted basis functions of A   symmetry.
  1308 basis functions,  2052 primitive gaussians,  1356 cartesian basis functions
   171 alpha electrons      171 beta electrons
       nuclear repulsion energy      6313.3783490090 Hartrees.
 NAtoms=   84 NActive=   84 NUniq=   84 SFac= 1.00D+00 NAtFMM=   60 NAOKFM=T Big=T
 Integral buffers will be    131072 words long.
 Raffenetti 2 integral format.
 Two-electron integral symmetry is turned on.
 Nuclear repulsion after empirical dispersion term =     6313.2848398406 Hartrees.
 Using the following non-standard input for PCM:
 --- end of non-standard input.
 ------------------------------------------------------------------------------
 Polarizable Continuum Model (PCM)
 =================================
 Model                : C-PCM.
 Atomic radii         : UFF (Universal Force Field).
 Polarization charges : Total charges.
 Charge compensation  : None.
 Solution method      : On-the-fly selection.
 Cavity type          : Scaled VdW (van der Waals Surface) (Alpha=1.100).
 Cavity algorithm     : GePol (No added spheres)
                        Default sphere list used, NSphG=   84.
                        Lebedev-Laikov grids with approx.  5.0 points / Ang**2.
                        Smoothing algorithm: York/Karplus (Gamma=1.0000).
                        Polarization charges: spherical gaussians, with
                                              point-specific exponents (IZeta= 3).
                        Self-potential: point-specific (ISelfS= 7).
                        Self-field    : sphere-specific E.n sum rule (ISelfD= 2).
 Solvent              : Water, Eps=  78.355300 Eps(inf)=   1.777849
 ------------------------------------------------------------------------------
 One-electron integrals computed using PRISM.
 NBasis=  1308 RedAO= T EigKep=  1.08D-06  NBF=  1308
 NBsUse=  1287 1.00D-06 EigRej=  9.14D-07 NBFU=  1287
 Initial guess from the checkpoint file:  "MaDA-1-conf-1.chk"
 B after Tr=    -0.000000   -0.000000   -0.000000
         Rot=    1.000000    0.000000    0.000000   -0.000000 Ang=   0.00 deg.
 Requested convergence on RMS density matrix=1.00D-08 within 128 cycles.
 Requested convergence on MAX density matrix=1.00D-06.
 Requested convergence on             energy=1.00D-06.
 No special actions if energy rises.
 Inv3:  Mode=1 IEnd=    78336300.
 Iteration    1 A*A^-1 deviation from unit magnitude is 3.55D-15 for   3156.
 Iteration    1 A*A^-1 deviation from orthogonality  is 2.44D-15 for   3795   3452.
 Iteration    1 A^-1*A deviation from unit magnitude is 3.55D-15 for   3156.
 Iteration    1 A^-1*A deviation from orthogonality  is 2.66D-15 for   2557   1211.
 Error on total polarization charges =  0.02261
 SCF Done:  E(RwB97XD) =  -2184.77882224     A.U. after   15 cycles
            NFock= 15  Conv=0.74D-08     -V/T= 2.0041

 **********************************************************************

            Population analysis using the SCF density.

 **********************************************************************

 Orbital symmetries:
       Occupied  (A) (A) (A) (A) (A) (A) (A) (A) (A) (A) (A) (A)
                 (A) (A) (A) (A) (A) (A) (A) (A) (A) (A) (A) (A)
                 (A) (A) (A) (A) (A) (A) (A) (A) (A) (A) (A) (A)
                 (A) (A) (A) (A) (A) (A) (A) (A) (A) (A) (A) (A)
                 (A) (A) (A) (A) (A) (A) (A) (A) (A) (A) (A) (A)
                 (A) (A) (A) (A) (A) (A) (A) (A) (A) (A) (A) (A)
                 (A) (A) (A) (A) (A) (A) (A) (A) (A) (A) (A) (A)
                 (A) (A) (A) (A) (A) (A) (A) (A) (A) (A) (A) (A)
                 (A) (A) (A) (A) (A) (A) (A) (A) (A) (A) (A) (A)
                 (A) (A) (A) (A) (A) (A) (A) (A) (A) (A) (A) (A)
                 (A) (A) (A) (A) (A) (A) (A) (A) (A) (A) (A) (A)
                 (A) (A) (A) (A) (A) (A) (A) (A) (A) (A) (A) (A)
                 (A) (A) (A) (A) (A) (A) (A) (A) (A) (A) (A) (A)
                 (A) (A) (A) (A) (A) (A) (A) (A) (A) (A) (A) (A)
                 (A) (A) (A)
       Virtual   (A) (A) (A) (A) (A) (A) (A) (A) (A) (A) (A) (A)
                 (A) (A) (A) (A) (A) (A) (A) (A) (A) (A) (A) (A)
                 (A) (A) (A) (A) (A) (A) (A) (A) (A) (A) (A) (A)
                 (A) (A) (A) (A) (A) (A) (A) (A) (A) (A) (A) (A)
                 (A) (A) (A) (A) (A) (A) (A) (A) (A) (A) (A) (A)
                 (A) (A) (A) (A) (A) (A) (A) (A) (A) (A) (A) (A)
                 (A) (A) (A) (A) (A) (A) (A) (A) (A) (A) (A) (A)
                 (A) (A) (A) (A) (A) (A) (A) (A) (A) (A) (A) (A)
                 (A) (A) (A) (A) (A) (A) (A) (A) (A) (A) (A) (A)
                 (A) (A) (A) (A) (A) (A) (A) (A) (A) (A) (A) (A)
                 (A) (A) (A) (A) (A) (A) (A) (A) (A) (A) (A) (A)
                 (A) (A) (A) (A) (A) (A) (A) (A) (A) (A) (A) (A)
                 (A) (A) (A) (A) (A) (A) (A) (A) (A) (A) (A) (A)
                 (A) (A) (A) (A) (A) (A) (A) (A) (A) (A) (A) (A)
                 (A) (A) (A) (A) (A) (A) (A) (A) (A) (A) (A) (A)
                 (A) (A) (A) (A) (A) (A) (A) (A) (A) (A) (A) (A)
                 (A) (A) (A) (A) (A) (A) (A) (A) (A) (A) (A) (A)
                 (A) (A) (A) (A) (A) (A) (A) (A) (A) (A) (A) (A)
                 (A) (A) (A) (A) (A) (A) (A) (A) (A) (A) (A) (A)
                 (A) (A) (A) (A) (A) (A) (A) (A) (A) (A) (A) (A)
                 (A) (A) (A) (A) (A) (A) (A) (A) (A) (A) (A) (A)
                 (A) (A) (A) (A) (A) (A) (A) (A) (A) (A) (A) (A)
                 (A) (A) (A) (A) (A) (A) (A) (A) (A) (A) (A) (A)
                 (A) (A) (A) (A) (A) (A) (A) (A) (A) (A) (A) (A)
                 (A) (A) (A) (A) (A) (A) (A) (A) (A) (A) (A) (A)
                 (A) (A) (A) (A) (A) (A) (A) (A) (A) (A) (A) (A)
                 (A) (A) (A) (A) (A) (A) (A) (A) (A) (A) (A) (A)
                 (A) (A) (A) (A) (A) (A) (A) (A) (A) (A) (A) (A)
                 (A) (A) (A) (A) (A) (A) (A) (A) (A) (A) (A) (A)
                 (A) (A) (A) (A) (A) (A) (A) (A) (A) (A) (A) (A)
                 (A) (A) (A) (A) (A) (A) (A) (A) (A) (A) (A) (A)
                 (A) (A) (A) (A) (A) (A) (A) (A) (A) (A) (A) (A)
                 (A) (A) (A) (A) (A) (A) (A) (A) (A) (A) (A) (A)
                 (A) (A) (A) (A) (A) (A) (A) (A) (A) (A) (A) (A)
                 (A) (A) (A) (A) (A) (A) (A) (A) (A) (A) (A) (A)
                 (A) (A) (A) (A) (A) (A) (A) (A) (A) (A) (A) (A)
                 (A) (A) (A) (A) (A) (A) (A) (A) (A) (A) (A) (A)
                 (A) (A) (A) (A) (A) (A) (A) (A) (A) (A) (A) (A)
                 (A) (A) (A) (A) (A) (A) (A) (A) (A) (A) (A) (A)
                 (A) (A) (A) (A) (A) (A) (A) (A) (A) (A) (A) (A)
                 (A) (A) (A) (A) (A) (A) (A) (A) (A) (A) (A) (A)
                 (A) (A) (A) (A) (A) (A) (A) (A) (A) (A) (A) (A)
                 (A) (A) (A) (A) (A) (A) (A) (A) (A) (A) (A) (A)
                 (A) (A) (A) (A) (A) (A) (A) (A) (A) (A) (A) (A)
                 (A) (A) (A) (A) (A) (A) (A) (A) (A) (A) (A) (A)
                 (A) (A) (A) (A) (A) (A) (A) (A) (A) (A) (A) (A)
                 (A) (A) (A) (A) (A) (A) (A) (A) (A) (A) (A) (A)
                 (A) (A) (A) (A) (A) (A) (A) (A) (A) (A) (A) (A)
                 (A) (A) (A) (A) (A) (A) (A) (A) (A) (A) (A) (A)
                 (A) (A) (A) (A) (A) (A) (A) (A) (A) (A) (A) (A)
                 (A) (A) (A) (A) (A) (A) (A) (A) (A) (A) (A) (A)
                 (A) (A) (A) (A) (A) (A) (A) (A) (A) (A) (A) (A)
                 (A) (A) (A) (A) (A) (A) (A) (A) (A) (A) (A) (A)
                 (A) (A) (A) (A) (A) (A) (A) (A) (A) (A) (A) (A)
                 (A) (A) (A) (A) (A) (A) (A) (A) (A) (A) (A) (A)
                 (A) (A) (A) (A) (A) (A) (A) (A) (A) (A) (A) (A)
                 (A) (A) (A) (A) (A) (A) (A) (A) (A) (A) (A) (A)
                 (A) (A) (A) (A) (A) (A) (A) (A) (A) (A) (A) (A)
                 (A) (A) (A) (A) (A) (A) (A) (A) (A) (A) (A) (A)
                 (A) (A) (A) (A) (A) (A) (A) (A) (A) (A) (A) (A)
                 (A) (A) (A) (A) (A) (A) (A) (A) (A) (A) (A) (A)
                 (A) (A) (A) (A) (A) (A) (A) (A) (A) (A) (A) (A)
                 (A) (A) (A) (A) (A) (A) (A) (A) (A) (A) (A) (A)
                 (A) (A) (A) (A) (A) (A) (A) (A) (A) (A) (A) (A)
                 (A) (A) (A) (A) (A) (A) (A) (A) (A) (A) (A) (A)
                 (A) (A) (A) (A) (A) (A) (A) (A) (A) (A) (A) (A)
                 (A) (A) (A) (A) (A) (A) (A) (A) (A) (A) (A) (A)
                 (A) (A) (A) (A) (A) (A) (A) (A) (A) (A) (A) (A)
                 (A) (A) (A) (A) (A) (A) (A) (A) (A) (A) (A) (A)
                 (A) (A) (A) (A) (A) (A) (A) (A) (A) (A) (A) (A)
                 (A) (A) (A) (A) (A) (A) (A) (A) (A) (A) (A) (A)
                 (A) (A) (A) (A) (A) (A) (A) (A) (A) (A) (A) (A)
                 (A) (A) (A) (A) (A) (A) (A) (A) (A) (A) (A) (A)
                 (A) (A) (A) (A) (A) (A) (A) (A) (A) (A) (A) (A)
                 (A) (A) (A) (A) (A) (A) (A) (A) (A) (A) (A) (A)
                 (A) (A) (A) (A) (A) (A) (A) (A) (A) (A) (A) (A)
                 (A) (A) (A) (A) (A) (A) (A) (A) (A) (A) (A) (A)
                 (A) (A) (A) (A) (A) (A) (A) (A) (A) (A) (A) (A)
                 (A) (A) (A) (A) (A) (A) (A) (A) (A) (A) (A) (A)
                 (A) (A) (A) (A) (A) (A) (A) (A) (A) (A) (A) (A)
                 (A) (A) (A) (A) (A) (A) (A) (A) (A) (A) (A) (A)
                 (A) (A) (A) (A) (A) (A) (A) (A) (A) (A) (A) (A)
                 (A) (A) (A) (A) (A) (A) (A) (A) (A) (A) (A) (A)
                 (A) (A) (A) (A) (A) (A) (A) (A) (A) (A) (A) (A)
                 (A) (A) (A) (A) (A) (A) (A) (A) (A) (A) (A) (A)
                 (A) (A) (A) (A) (A) (A) (A) (A) (A) (A) (A) (A)
                 (A) (A) (A) (A) (A) (A) (A) (A) (A) (A) (A) (A)
                 (A) (A) (A) (A) (A) (A) (A) (A) (A) (A) (A) (A)
                 (A) (A) (A) (A) (A) (A) (A) (A) (A) (A) (A) (A)
                 (A) (A) (A) (A) (A) (A) (A) (A) (A) (A) (A) (A)
                 (A) (A) (A) (A) (A) (A) (A) (A) (A) (A) (A) (A)
                 (A) (A) (A) (A) (A) (A) (A) (A) (A) (A) (A) (A)
                 (A) (A) (A) (A) (A) (A) (A) (A) (A) (A) (A) (A)
 The electronic state is 1-A.
 Alpha  occ. eigenvalues --  -19.32284 -19.28970 -19.28955 -19.28875 -19.28774
 Alpha  occ. eigenvalues --  -19.28754 -19.27802 -19.27719 -19.25390 -10.39299
 Alpha  occ. eigenvalues --  -10.37109 -10.36701 -10.36474 -10.36163 -10.36108
 Alpha  occ. eigenvalues --  -10.36084 -10.36055 -10.35906 -10.35702 -10.31785
 Alpha  occ. eigenvalues --  -10.31349 -10.30678 -10.30523 -10.30448 -10.30366
 Alpha  occ. eigenvalues --  -10.30346 -10.30255 -10.30145 -10.30121 -10.30053
 Alpha  occ. eigenvalues --  -10.29919 -10.29775 -10.29760 -10.29620 -10.29616
 Alpha  occ. eigenvalues --  -10.29578 -10.29506 -10.28996 -10.28991 -10.28715
 Alpha  occ. eigenvalues --  -10.28676 -10.28588 -10.28564 -10.28505 -10.28434
 Alpha  occ. eigenvalues --  -10.27943 -10.27725 -10.27618  -1.22967  -1.18569
 Alpha  occ. eigenvalues --   -1.18011  -1.17989  -1.17955  -1.17859  -1.17688
 Alpha  occ. eigenvalues --   -1.17039  -1.15271  -0.98071  -0.97327  -0.96937
 Alpha  occ. eigenvalues --   -0.96671  -0.95244  -0.92971  -0.91935  -0.90254
 Alpha  occ. eigenvalues --   -0.89482  -0.88875  -0.86912  -0.86213  -0.85639
 Alpha  occ. eigenvalues --   -0.85233  -0.84602  -0.83384  -0.82435  -0.81872
 Alpha  occ. eigenvalues --   -0.79893  -0.79290  -0.76355  -0.75758  -0.75004
 Alpha  occ. eigenvalues --   -0.74052  -0.73439  -0.73364  -0.72697  -0.71607
 Alpha  occ. eigenvalues --   -0.71241  -0.70763  -0.69544  -0.69398  -0.66582
 Alpha  occ. eigenvalues --   -0.66401  -0.66239  -0.65632  -0.64053  -0.62459
 Alpha  occ. eigenvalues --   -0.61813  -0.60744  -0.60523  -0.60040  -0.59764
 Alpha  occ. eigenvalues --   -0.59709  -0.59251  -0.58734  -0.58317  -0.58021
 Alpha  occ. eigenvalues --   -0.57500  -0.56714  -0.56429  -0.56340  -0.55844
 Alpha  occ. eigenvalues --   -0.55228  -0.54526  -0.54142  -0.53653  -0.53532
 Alpha  occ. eigenvalues --   -0.53142  -0.52748  -0.52548  -0.52078  -0.51868
 Alpha  occ. eigenvalues --   -0.51701  -0.51536  -0.51367  -0.51066  -0.50746
 Alpha  occ. eigenvalues --   -0.50626  -0.50310  -0.50248  -0.49815  -0.49459
 Alpha  occ. eigenvalues --   -0.49143  -0.48865  -0.48422  -0.48092  -0.47882
 Alpha  occ. eigenvalues --   -0.47767  -0.47651  -0.47072  -0.46979  -0.46748
 Alpha  occ. eigenvalues --   -0.46634  -0.46567  -0.46487  -0.45800  -0.45698
 Alpha  occ. eigenvalues --   -0.45127  -0.44704  -0.44627  -0.43978  -0.43719
 Alpha  occ. eigenvalues --   -0.43511  -0.43459  -0.42879  -0.42541  -0.41947
 Alpha  occ. eigenvalues --   -0.41683  -0.41325  -0.40494  -0.39630  -0.37417
 Alpha  occ. eigenvalues --   -0.35256  -0.33897  -0.33129  -0.32760  -0.32454
 Alpha  occ. eigenvalues --   -0.31939  -0.31235  -0.30836  -0.29913  -0.29767
 Alpha  occ. eigenvalues --   -0.27518
 Alpha virt. eigenvalues --   -0.00086   0.00782   0.03731   0.04087   0.04466
 Alpha virt. eigenvalues --    0.04719   0.04913   0.04967   0.05127   0.05240
 Alpha virt. eigenvalues --    0.05253   0.05484   0.05852   0.06218   0.06259
 Alpha virt. eigenvalues --    0.06423   0.06524   0.06691   0.06754   0.06992
 Alpha virt. eigenvalues --    0.07115   0.07431   0.07604   0.07996   0.08172
 Alpha virt. eigenvalues --    0.08360   0.08586   0.08693   0.08833   0.09107
 Alpha virt. eigenvalues --    0.09372   0.09622   0.09855   0.10039   0.10162
 Alpha virt. eigenvalues --    0.10264   0.10479   0.10839   0.11048   0.11257
 Alpha virt. eigenvalues --    0.11604   0.11958   0.12041   0.12335   0.12403
 Alpha virt. eigenvalues --    0.12516   0.13167   0.13350   0.13621   0.13690
 Alpha virt. eigenvalues --    0.14185   0.14399   0.14467   0.14746   0.14845
 Alpha virt. eigenvalues --    0.14996   0.15101   0.15416   0.15590   0.15783
 Alpha virt. eigenvalues --    0.15849   0.15986   0.16274   0.16405   0.16550
 Alpha virt. eigenvalues --    0.16817   0.16869   0.16924   0.17025   0.17104
 Alpha virt. eigenvalues --    0.17358   0.17434   0.17583   0.17677   0.17942
 Alpha virt. eigenvalues --    0.18113   0.18321   0.18415   0.18684   0.18780
 Alpha virt. eigenvalues --    0.18895   0.19014   0.19170   0.19318   0.19509
 Alpha virt. eigenvalues --    0.19561   0.19684   0.19822   0.19863   0.20084
 Alpha virt. eigenvalues --    0.20298   0.20505   0.20650   0.20707   0.20978
 Alpha virt. eigenvalues --    0.21047   0.21150   0.21203   0.21370   0.21495
 Alpha virt. eigenvalues --    0.21621   0.21811   0.22011   0.22212   0.22278
 Alpha virt. eigenvalues --    0.22454   0.22598   0.22753   0.22864   0.22982
 Alpha virt. eigenvalues --    0.23281   0.23579   0.23705   0.23804   0.23933
 Alpha virt. eigenvalues --    0.24215   0.24279   0.24325   0.24434   0.24587
 Alpha virt. eigenvalues --    0.24826   0.24905   0.25098   0.25226   0.25384
 Alpha virt. eigenvalues --    0.25603   0.25670   0.25861   0.25950   0.26122
 Alpha virt. eigenvalues --    0.26185   0.26338   0.26471   0.26655   0.26733
 Alpha virt. eigenvalues --    0.27137   0.27240   0.27454   0.27541   0.27800
 Alpha virt. eigenvalues --    0.27874   0.28090   0.28287   0.28401   0.28432
 Alpha virt. eigenvalues --    0.28806   0.28963   0.29128   0.29283   0.29521
 Alpha virt. eigenvalues --    0.29631   0.29748   0.29884   0.30097   0.30288
 Alpha virt. eigenvalues --    0.30324   0.30513   0.30578   0.30709   0.30892
 Alpha virt. eigenvalues --    0.30988   0.31296   0.31573   0.31620   0.31655
 Alpha virt. eigenvalues --    0.31830   0.31945   0.32105   0.32173   0.32533
 Alpha virt. eigenvalues --    0.32664   0.32766   0.32972   0.33102   0.33246
 Alpha virt. eigenvalues --    0.33327   0.33584   0.33724   0.33985   0.34133
 Alpha virt. eigenvalues --    0.34428   0.34524   0.34637   0.34762   0.34906
 Alpha virt. eigenvalues --    0.35149   0.35194   0.35455   0.35516   0.35578
 Alpha virt. eigenvalues --    0.35734   0.35854   0.36095   0.36191   0.36336
 Alpha virt. eigenvalues --    0.36489   0.36548   0.36844   0.36915   0.37009
 Alpha virt. eigenvalues --    0.37218   0.37475   0.37561   0.37630   0.37688
 Alpha virt. eigenvalues --    0.37885   0.37989   0.38256   0.38367   0.38474
 Alpha virt. eigenvalues --    0.38628   0.38766   0.38966   0.39176   0.39222
 Alpha virt. eigenvalues --    0.39519   0.39731   0.39770   0.39969   0.40093
 Alpha virt. eigenvalues --    0.40352   0.40593   0.40762   0.40937   0.41088
 Alpha virt. eigenvalues --    0.41285   0.41435   0.41476   0.41663   0.41845
 Alpha virt. eigenvalues --    0.41907   0.42117   0.42271   0.42424   0.42696
 Alpha virt. eigenvalues --    0.42737   0.43054   0.43264   0.43406   0.43456
 Alpha virt. eigenvalues --    0.43821   0.43916   0.44041   0.44429   0.44540
 Alpha virt. eigenvalues --    0.44740   0.44892   0.45116   0.45316   0.45587
 Alpha virt. eigenvalues --    0.45643   0.46095   0.46357   0.46432   0.46570
 Alpha virt. eigenvalues --    0.46715   0.46962   0.47287   0.47497   0.47755
 Alpha virt. eigenvalues --    0.47836   0.48018   0.48125   0.48626   0.48982
 Alpha virt. eigenvalues --    0.49155   0.49480   0.49626   0.49816   0.50190
 Alpha virt. eigenvalues --    0.50282   0.50446   0.50636   0.50869   0.51021
 Alpha virt. eigenvalues --    0.51425   0.51801   0.52014   0.52430   0.52731
 Alpha virt. eigenvalues --    0.52747   0.53064   0.53724   0.54414   0.54479
 Alpha virt. eigenvalues --    0.54765   0.54815   0.55183   0.55359   0.55708
 Alpha virt. eigenvalues --    0.55973   0.56331   0.56450   0.56950   0.57069
 Alpha virt. eigenvalues --    0.57505   0.58156   0.58284   0.58403   0.59131
 Alpha virt. eigenvalues --    0.59522   0.59711   0.60184   0.60745   0.60902
 Alpha virt. eigenvalues --    0.61100   0.61651   0.62424   0.62754   0.62994
 Alpha virt. eigenvalues --    0.63520   0.63674   0.63993   0.64095   0.64666
 Alpha virt. eigenvalues --    0.64910   0.65014   0.65277   0.65752   0.65920
 Alpha virt. eigenvalues --    0.66299   0.66618   0.66918   0.67177   0.67558
 Alpha virt. eigenvalues --    0.67770   0.68026   0.68266   0.68573   0.68785
 Alpha virt. eigenvalues --    0.69084   0.69209   0.69410   0.69900   0.70317
 Alpha virt. eigenvalues --    0.70572   0.70788   0.71179   0.71404   0.71694
 Alpha virt. eigenvalues --    0.71821   0.72371   0.72577   0.73020   0.73183
 Alpha virt. eigenvalues --    0.73391   0.73691   0.73851   0.74250   0.74493
 Alpha virt. eigenvalues --    0.74752   0.74778   0.75259   0.75511   0.75752
 Alpha virt. eigenvalues --    0.75976   0.76260   0.76659   0.77019   0.77242
 Alpha virt. eigenvalues --    0.77447   0.77823   0.78233   0.78356   0.78720
 Alpha virt. eigenvalues --    0.78857   0.78994   0.79143   0.79413   0.79466
 Alpha virt. eigenvalues --    0.79603   0.80030   0.80339   0.80457   0.80920
 Alpha virt. eigenvalues --    0.81119   0.81297   0.81665   0.81790   0.82149
 Alpha virt. eigenvalues --    0.82590   0.82885   0.82965   0.83330   0.83616
 Alpha virt. eigenvalues --    0.83901   0.84144   0.84412   0.84723   0.84770
 Alpha virt. eigenvalues --    0.84906   0.85005   0.85416   0.85590   0.85916
 Alpha virt. eigenvalues --    0.86262   0.86485   0.86618   0.86860   0.87283
 Alpha virt. eigenvalues --    0.87458   0.87791   0.87864   0.88388   0.88875
 Alpha virt. eigenvalues --    0.89035   0.89207   0.89589   0.89675   0.90018
 Alpha virt. eigenvalues --    0.90146   0.90536   0.90777   0.90886   0.91012
 Alpha virt. eigenvalues --    0.91241   0.91723   0.91752   0.92142   0.93099
 Alpha virt. eigenvalues --    0.93351   0.93727   0.94122   0.94507   0.94609
 Alpha virt. eigenvalues --    0.95232   0.95691   0.96164   0.96336   0.96757
 Alpha virt. eigenvalues --    0.97119   0.97725   0.97922   0.98128   0.98396
 Alpha virt. eigenvalues --    0.98917   0.99137   0.99391   0.99709   0.99866
 Alpha virt. eigenvalues --    1.00100   1.00506   1.00594   1.00895   1.01382
 Alpha virt. eigenvalues --    1.01612   1.01940   1.02298   1.03270   1.03344
 Alpha virt. eigenvalues --    1.03939   1.04179   1.04413   1.04737   1.05141
 Alpha virt. eigenvalues --    1.05596   1.05808   1.06555   1.06699   1.06868
 Alpha virt. eigenvalues --    1.07333   1.08065   1.08572   1.08794   1.09037
 Alpha virt. eigenvalues --    1.09277   1.09738   1.09956   1.10110   1.10741
 Alpha virt. eigenvalues --    1.10889   1.11280   1.11649   1.12148   1.12581
 Alpha virt. eigenvalues --    1.12793   1.13065   1.13505   1.13705   1.14189
 Alpha virt. eigenvalues --    1.14821   1.15100   1.15252   1.15643   1.15984
 Alpha virt. eigenvalues --    1.16304   1.16500   1.17164   1.17533   1.17723
 Alpha virt. eigenvalues --    1.18202   1.18305   1.18625   1.19088   1.19315
 Alpha virt. eigenvalues --    1.20170   1.20561   1.20707   1.20952   1.21389
 Alpha virt. eigenvalues --    1.21868   1.22129   1.22874   1.23151   1.23899
 Alpha virt. eigenvalues --    1.24049   1.24305   1.24772   1.25060   1.25804
 Alpha virt. eigenvalues --    1.26132   1.27082   1.27274   1.27626   1.28153
 Alpha virt. eigenvalues --    1.28378   1.28525   1.29457   1.30324   1.30590
 Alpha virt. eigenvalues --    1.30771   1.31382   1.31644   1.31794   1.32087
 Alpha virt. eigenvalues --    1.32463   1.33251   1.33641   1.33987   1.34602
 Alpha virt. eigenvalues --    1.35034   1.35508   1.36568   1.36750   1.37197
 Alpha virt. eigenvalues --    1.37564   1.37715   1.38145   1.38660   1.38884
 Alpha virt. eigenvalues --    1.39794   1.39937   1.40691   1.41004   1.41161
 Alpha virt. eigenvalues --    1.41944   1.42500   1.42786   1.43459   1.43776
 Alpha virt. eigenvalues --    1.44402   1.45458   1.46087   1.46504   1.47054
 Alpha virt. eigenvalues --    1.47675   1.47737   1.48682   1.49143   1.49624
 Alpha virt. eigenvalues --    1.50101   1.50243   1.50422   1.50636   1.50962
 Alpha virt. eigenvalues --    1.51893   1.53062   1.53219   1.53379   1.54067
 Alpha virt. eigenvalues --    1.54190   1.54974   1.55167   1.55599   1.55998
 Alpha virt. eigenvalues --    1.56262   1.56447   1.57020   1.57378   1.57849
 Alpha virt. eigenvalues --    1.58337   1.59039   1.59826   1.59977   1.60324
 Alpha virt. eigenvalues --    1.60578   1.61117   1.61788   1.62066   1.62601
 Alpha virt. eigenvalues --    1.63045   1.63196   1.64023   1.64767   1.65048
 Alpha virt. eigenvalues --    1.65229   1.65392   1.65686   1.65797   1.66009
 Alpha virt. eigenvalues --    1.66913   1.67058   1.67353   1.68053   1.68258
 Alpha virt. eigenvalues --    1.68354   1.68521   1.68885   1.69203   1.69354
 Alpha virt. eigenvalues --    1.69772   1.69866   1.70135   1.70291   1.70446
 Alpha virt. eigenvalues --    1.70743   1.71412   1.71570   1.71699   1.72116
 Alpha virt. eigenvalues --    1.72336   1.72774   1.73426   1.73675   1.73754
 Alpha virt. eigenvalues --    1.74160   1.74422   1.75314   1.75532   1.75879
 Alpha virt. eigenvalues --    1.76421   1.77439   1.78293   1.78649   1.78954
 Alpha virt. eigenvalues --    1.79686   1.80074   1.80458   1.80881   1.81166
 Alpha virt. eigenvalues --    1.81848   1.82426   1.82774   1.83229   1.83817
 Alpha virt. eigenvalues --    1.84169   1.84460   1.84829   1.84992   1.85319
 Alpha virt. eigenvalues --    1.85779   1.86835   1.87016   1.87238   1.87552
 Alpha virt. eigenvalues --    1.88108   1.88350   1.88478   1.88852   1.89668
 Alpha virt. eigenvalues --    1.89904   1.90309   1.90927   1.91076   1.91765
 Alpha virt. eigenvalues --    1.92205   1.92298   1.92886   1.93239   1.93298
 Alpha virt. eigenvalues --    1.94194   1.94761   1.95377   1.95608   1.95794
 Alpha virt. eigenvalues --    1.96210   1.96550   1.97147   1.97337   1.98055
 Alpha virt. eigenvalues --    1.98598   1.98757   1.99425   1.99834   2.00010
 Alpha virt. eigenvalues --    2.00315   2.00790   2.01142   2.01432   2.02117
 Alpha virt. eigenvalues --    2.02554   2.02947   2.03248   2.03857   2.04221
 Alpha virt. eigenvalues --    2.04594   2.05186   2.05712   2.06313   2.06539
 Alpha virt. eigenvalues --    2.06771   2.07515   2.07919   2.08100   2.08331
 Alpha virt. eigenvalues --    2.08749   2.08817   2.09091   2.09710   2.09859
 Alpha virt. eigenvalues --    2.10004   2.10198   2.10933   2.11072   2.11375
 Alpha virt. eigenvalues --    2.11774   2.12347   2.12540   2.13235   2.13522
 Alpha virt. eigenvalues --    2.14113   2.14645   2.15168   2.15340   2.15888
 Alpha virt. eigenvalues --    2.16163   2.16512   2.17517   2.17817   2.17965
 Alpha virt. eigenvalues --    2.18170   2.19390   2.19799   2.19930   2.20366
 Alpha virt. eigenvalues --    2.20915   2.21464   2.21845   2.22017   2.22556
 Alpha virt. eigenvalues --    2.23245   2.24262   2.24797   2.25179   2.25481
 Alpha virt. eigenvalues --    2.25784   2.25838   2.26620   2.27425   2.27872
 Alpha virt. eigenvalues --    2.29425   2.30139   2.30259   2.30903   2.31859
 Alpha virt. eigenvalues --    2.32198   2.32467   2.33062   2.33387   2.34016
 Alpha virt. eigenvalues --    2.35199   2.35881   2.36165   2.37317   2.38709
 Alpha virt. eigenvalues --    2.39369   2.40030   2.41076   2.41100   2.41443
 Alpha virt. eigenvalues --    2.42220   2.42842   2.42969   2.43619   2.44642
 Alpha virt. eigenvalues --    2.44847   2.45776   2.45951   2.46567   2.47035
 Alpha virt. eigenvalues --    2.48015   2.49030   2.50424   2.50700   2.51084
 Alpha virt. eigenvalues --    2.52102   2.52486   2.53300   2.53529   2.54381
 Alpha virt. eigenvalues --    2.55048   2.56412   2.56764   2.57605   2.57938
 Alpha virt. eigenvalues --    2.58497   2.58922   2.60002   2.61110   2.61547
 Alpha virt. eigenvalues --    2.62046   2.62571   2.63228   2.64201   2.64517
 Alpha virt. eigenvalues --    2.65253   2.66474   2.66685   2.66716   2.67823
 Alpha virt. eigenvalues --    2.68831   2.69523   2.69719   2.69850   2.70229
 Alpha virt. eigenvalues --    2.72285   2.72609   2.73066   2.73999   2.74778
 Alpha virt. eigenvalues --    2.76057   2.76362   2.76687   2.77359   2.77638
 Alpha virt. eigenvalues --    2.77917   2.78224   2.79207   2.79623   2.80392
 Alpha virt. eigenvalues --    2.80990   2.81413   2.82087   2.82328   2.82918
 Alpha virt. eigenvalues --    2.83647   2.84743   2.84894   2.85410   2.85686
 Alpha virt. eigenvalues --    2.85893   2.86373   2.86635   2.87274   2.87886
 Alpha virt. eigenvalues --    2.88375   2.88531   2.89359   2.89765   2.90105
 Alpha virt. eigenvalues --    2.90529   2.90936   2.91307   2.92422   2.92881
 Alpha virt. eigenvalues --    2.93365   2.93532   2.94101   2.94502   2.94572
 Alpha virt. eigenvalues --    2.95203   2.95672   2.96072   2.96873   2.97495
 Alpha virt. eigenvalues --    2.97799   2.98171   2.98587   2.99176   2.99350
 Alpha virt. eigenvalues --    2.99878   3.00389   3.00603   3.01465   3.01813
 Alpha virt. eigenvalues --    3.02438   3.02852   3.03748   3.04611   3.05568
 Alpha virt. eigenvalues --    3.06124   3.06606   3.07194   3.07564   3.08423
 Alpha virt. eigenvalues --    3.09453   3.09903   3.11314   3.12097   3.12772
 Alpha virt. eigenvalues --    3.13405   3.14357   3.14584   3.14972   3.16071
 Alpha virt. eigenvalues --    3.16355   3.16753   3.17140   3.17256   3.17311
 Alpha virt. eigenvalues --    3.17654   3.17686   3.17731   3.18901   3.19526
 Alpha virt. eigenvalues --    3.20229   3.20273   3.20933   3.21606   3.21886
 Alpha virt. eigenvalues --    3.22667   3.22830   3.23504   3.23765   3.23881
 Alpha virt. eigenvalues --    3.24821   3.25187   3.25802   3.26591   3.27096
 Alpha virt. eigenvalues --    3.27236   3.27685   3.28006   3.28123   3.28643
 Alpha virt. eigenvalues --    3.29246   3.29517   3.30016   3.30315   3.30543
 Alpha virt. eigenvalues --    3.31640   3.32300   3.32454   3.32737   3.32886
 Alpha virt. eigenvalues --    3.33108   3.33990   3.34762   3.35051   3.36090
 Alpha virt. eigenvalues --    3.37607   3.38906   3.39807   3.39998   3.41311
 Alpha virt. eigenvalues --    3.41937   3.44240   3.44753   3.45773   3.46428
 Alpha virt. eigenvalues --    3.47583   3.47785   3.48339   3.51521   3.52681
 Alpha virt. eigenvalues --    3.53037   3.54584   3.55976   3.56265   3.56863
 Alpha virt. eigenvalues --    3.57026   3.58167   3.59115   3.59457   3.60946
 Alpha virt. eigenvalues --    3.62082   3.62621   3.63503   3.64890   3.66028
 Alpha virt. eigenvalues --    3.69278   3.70155   3.70549   3.71631   3.71948
 Alpha virt. eigenvalues --    3.73408   3.74879   3.75928   3.76755   3.78714
 Alpha virt. eigenvalues --    3.79510   3.82175   3.83132   3.84934   3.85559
 Alpha virt. eigenvalues --    3.86397   3.88812   3.89668   3.90412   3.91260
 Alpha virt. eigenvalues --    3.92691   3.94004   3.94627   3.95127   3.95657
 Alpha virt. eigenvalues --    3.96824   3.98588   3.99505   4.00354   4.00813
 Alpha virt. eigenvalues --    4.01954   4.02724   4.03718   4.05538   4.07365
 Alpha virt. eigenvalues --    4.08588   4.11475   4.15562   4.16253   4.18800
 Alpha virt. eigenvalues --    4.19343   4.19975   4.21989   4.22943   4.23367
 Alpha virt. eigenvalues --    4.23881   4.25838   4.28568   4.30307   4.31305
 Alpha virt. eigenvalues --    4.31684   4.32396   4.32620   4.33462   4.34870
 Alpha virt. eigenvalues --    4.37508   4.37874   4.39101   4.42228   4.44427
 Alpha virt. eigenvalues --    4.45419   4.51207   4.53136   4.56384   4.59008
 Alpha virt. eigenvalues --    4.65835   4.72761   4.93141   4.95310   4.95830
 Alpha virt. eigenvalues --    4.96821   5.11811   5.13717   5.18601   5.18953
 Alpha virt. eigenvalues --    5.21493   5.22714   5.23623   5.26918   5.32508
 Alpha virt. eigenvalues --    5.52285   5.55150   5.55739   5.60345   5.62804
 Alpha virt. eigenvalues --    5.63798   5.64705   5.66526   5.67975   5.84764
 Alpha virt. eigenvalues --    5.87265   5.88640   5.89597   5.91292   5.94133
 Alpha virt. eigenvalues --    5.95737   5.97606   6.02901  23.73504  23.74182
 Alpha virt. eigenvalues --   23.78330  23.85167  23.85845  23.93019  23.98121
 Alpha virt. eigenvalues --   23.98891  24.04780  24.05631  24.05850  24.06883
 Alpha virt. eigenvalues --   24.07614  24.08097  24.08677  24.09117  24.09565
 Alpha virt. eigenvalues --   24.10589  24.11123  24.11437  24.13445  24.13909
 Alpha virt. eigenvalues --   24.14451  24.16067  24.18568  24.20100  24.21056
 Alpha virt. eigenvalues --   24.22055  24.22749  24.23322  24.23676  24.23983
 Alpha virt. eigenvalues --   24.29972  24.30948  24.31681  24.32380  24.34019
 Alpha virt. eigenvalues --   24.38177  24.40603  50.07097  50.08227  50.10634
 Alpha virt. eigenvalues --   50.11655  50.12712  50.13142  50.14316  50.15471
 Alpha virt. eigenvalues --   50.21572
          Condensed to atoms (all electrons):
 Mulliken charges:
               1
     1  C   -0.229411
     2  C   -0.668423
     3  C   -0.208512
     4  C   -0.190087
     5  C    0.317028
     6  C   -0.099469
     7  H    0.261540
     8  H    0.252550
     9  H    0.231144
    10  O   -0.275428
    11  H    0.316855
    12  O   -0.212531
    13  H    0.326433
    14  C    0.302675
    15  H    0.315318
    16  C    0.742194
    17  H    0.170931
    18  C   -0.783048
    19  O   -0.229008
    20  C    0.156121
    21  C   -0.243467
    22  C   -0.207925
    23  C   -0.196852
    24  H    0.241152
    25  C    0.824306
    26  C   -0.466410
    27  H    0.246910
    28  O   -0.188535
    29  H    0.393779
    30  O   -0.218529
    31  H    0.399968
    32  C    0.415991
    33  C   -0.520165
    34  C   -0.511005
    35  C   -0.218393
    36  H    0.238954
    37  C   -0.508218
    38  H    0.263350
    39  C   -0.034256
    40  O   -0.194312
    41  H    0.450320
    42  O   -0.150229
    43  H    0.315112
    44  C   -0.228167
    45  H    0.327422
    46  C   -0.684460
    47  H    0.269265
    48  C    0.062939
    49  C   -0.778809
    50  H    0.224367
    51  H    0.268921
    52  C   -0.450185
    53  H    0.177172
    54  H    0.194374
    55  H    0.197725
    56  C    0.366513
    57  C    0.384764
    58  C   -0.414000
    59  C   -0.632973
    60  C   -0.026488
    61  C   -0.394684
    62  C   -0.286474
    63  C   -0.100149
    64  H    0.265787
    65  H    0.250523
    66  H    0.250117
    67  H    0.253514
    68  O   -0.215217
    69  H    0.317047
    70  O    0.064706
    71  C   -0.544392
    72  H    0.293247
    73  H    0.110025
    74  C   -0.632721
    75  H    0.242569
    76  C    0.638512
    77  C   -0.917329
    78  H    0.186056
    79  H    0.183433
    80  H    0.105374
    81  C   -0.499342
    82  H    0.170301
    83  H    0.184176
    84  H    0.188126
 Sum of Mulliken charges =  -0.00000
 Mulliken charges with hydrogens summed into heavy atoms:
               1
     1  C    0.032129
     2  C   -0.668423
     3  C    0.044038
     4  C    0.041057
     5  C    0.317028
     6  C   -0.099469
    10  O    0.041427
    12  O    0.113901
    14  C    0.617993
    16  C    0.913126
    18  C   -0.783048
    19  O   -0.229008
    20  C    0.156121
    21  C   -0.002315
    22  C   -0.207925
    23  C    0.050058
    25  C    0.824306
    26  C   -0.466410
    28  O    0.205244
    30  O    0.181439
    32  C    0.415991
    33  C   -0.281211
    34  C   -0.247654
    35  C   -0.218393
    37  C   -0.508218
    39  C   -0.034256
    40  O    0.256008
    42  O    0.164883
    44  C    0.099255
    46  C   -0.415195
    48  C    0.062939
    49  C   -0.285520
    52  C    0.119085
    56  C    0.366513
    57  C    0.384764
    58  C   -0.148213
    59  C   -0.632973
    60  C    0.224035
    61  C   -0.144567
    62  C   -0.032960
    63  C   -0.100149
    68  O    0.101830
    70  O    0.064706
    71  C   -0.141119
    74  C   -0.390152
    76  C    0.638512
    77  C   -0.442466
    81  C    0.043260
 Electronic spatial extent (au):  <R**2>=          32397.1342
 Charge=             -0.0000 electrons
 Dipole moment (field-independent basis, Debye):
    X=             -0.3466    Y=              4.5624    Z=             -5.6195  Tot=              7.2467
 Quadrupole moment (field-independent basis, Debye-Ang):
   XX=           -197.3787   YY=           -280.8772   ZZ=           -275.5280
   XY=             27.9146   XZ=             -5.3719   YZ=             -6.2425
 Traceless Quadrupole moment (field-independent basis, Debye-Ang):
   XX=             53.8826   YY=            -29.6159   ZZ=            -24.2667
   XY=             27.9146   XZ=             -5.3719   YZ=             -6.2425
 Octapole moment (field-independent basis, Debye-Ang**2):
  XXX=            222.1082  YYY=             72.9008  ZZZ=            -51.9852  XYY=            -88.8986
  XXY=             -4.4205  XXZ=           -134.3282  XZZ=             -9.6914  YZZ=             15.9169
  YYZ=              6.5747  XYZ=              8.5661
 Hexadecapole moment (field-independent basis, Debye-Ang**3):
 XXXX=         -26590.1380 YYYY=          -5576.5195 ZZZZ=          -4100.5903 XXXY=           1687.9739
 XXXZ=           -179.0051 YYYX=            -75.1138 YYYZ=           -125.1143 ZZZX=             14.0578
 ZZZY=           -102.0311 XXYY=          -6542.1645 XXZZ=          -6032.4444 YYZZ=          -1640.7142
 XXYZ=            140.4013 YYXZ=            137.9712 ZZXY=            156.0050
 N-N= 6.313284839841D+03 E-N=-1.772719396549D+04  KE= 2.175910881992D+03
 1\1\GINC-NODE2\SP\RwB97XD\6-311++G(d,p)\C39H36O9\ZHOUJUNSU\11-Jul-2023
 \0\\# wb97xd/6-311++G(d,p) integral(ultrafinegrid) guess=read geom=che
 ck scrf=(cpcm,read,solvent=water)\\Candidate Structure: MaDA-TS-1, Con
 former: 1, Single-point energies calculated with wB97X-D/6-311++G(d,p)
 \\0,1\C,0,-6.4469568132,1.9338240292,-1.585578503\C,0,-7.3591225334,0.
 9253555097,-1.8962122328\C,0,-7.3279397157,-0.2810306159,-1.201334998\
 C,0,-6.3784528136,-0.4611753175,-0.1975086127\C,0,-5.4532704322,0.5216
 210045,0.1438385092\C,0,-5.5085089981,1.7268898539,-0.5803146421\H,0,-
 6.48021189,2.8706795681,-2.1345380486\H,0,-8.0337230428,-1.0723696599,
 -1.4373863023\H,0,-6.3644613149,-1.4102926626,0.3287438861\O,0,-8.2515
 982554,1.1852356474,-2.8882371756\H,0,-8.8232562327,0.4162535525,-3.01
 29188157\O,0,-4.5986876189,2.6876673969,-0.2527829583\H,0,-4.737752258
 2,3.4685685585,-0.8045106466\C,0,-4.3877805421,0.3536304808,1.21555022
 59\H,0,-4.332854716,1.3023903859,1.7613162074\C,0,-3.0180416393,0.1483
 084164,0.5248318834\H,0,-2.9634503827,0.8405746785,-0.3116511833\C,0,-
 1.8333654528,0.4051832601,1.4419847442\O,0,-1.8050130499,-0.1474197004
 ,2.5544554767\C,0,-0.6807983685,1.170917122,0.9547035977\C,0,-0.746422
 2283,2.0216454483,-0.1660479281\C,0,0.5958620984,0.9324924142,1.532008
 3487\C,0,0.3841691973,2.5863877578,-0.7071878059\H,0,-1.7090067856,2.2
 633489852,-0.6027224969\C,0,1.7673100249,1.4521781961,0.9608273363\C,0
 ,1.6400799347,2.2745703955,-0.1616019813\H,0,0.3322151395,3.2541451979
 ,-1.5597930931\O,0,0.7351703841,0.1599948607,2.6192249677\H,0,-0.17558
 75892,-0.1096593309,2.8915134679\O,0,2.7138104363,2.8118812932,-0.7804
 563333\H,0,3.5036882361,2.69731365,-0.2220875434\C,0,1.3202061895,-1.4
 717468805,-1.0686691394\C,0,0.4045517687,-0.8910710515,-1.9503532976\C
 ,0,0.8620903127,-2.1432761067,0.0592395238\C,0,-0.9474035515,-0.922640
 6601,-1.6438130413\H,0,0.7441308066,-0.3759827213,-2.8437430285\C,0,-0
 .5013918902,-2.1560480631,0.3597175716\H,0,1.5528320044,-2.5822893704,
 0.7689170641\C,0,-1.440395812,-1.5368837411,-0.4803464222\O,0,-0.83104
 90067,-2.7542220205,1.533587472\H,0,-1.7533939621,-2.5434006584,1.7612
 259913\O,0,-1.8648806281,-0.3033666839,-2.4366112553\H,0,-1.4103147405
 ,0.1448652367,-3.1616981654\C,0,-2.8922351021,-1.279425087,-0.10104530
 44\H,0,-3.4606724039,-1.2375083044,-1.0379147149\C,0,-3.5242394946,-2.
 361111449,0.7381662273\H,0,-3.3306701857,-3.384451112,0.416145708\C,0,
 -4.3453460944,-2.1441923292,1.7718170872\C,0,-4.6940438257,-0.75270002
 01,2.2335166832\H,0,-5.7574107295,-0.7178232799,2.5029103818\H,0,-4.13
 99174268,-0.553089447,3.1569111416\C,0,-4.9731854446,-3.2704373414,2.5
 440323049\H,0,-4.6272979473,-4.2476980458,2.1954019709\H,0,-4.74128268
 94,-3.1810168801,3.6125963945\H,0,-6.0663735143,-3.2371807753,2.454508
 4153\C,0,4.8369512812,-0.6794826545,-1.8376235078\C,0,4.8654000737,-1.
 6823826236,-0.8594629317\C,0,6.0264382847,-2.2013453115,-0.3071179539\
 C,0,7.2217080391,-1.6667450148,-0.7811167428\C,0,7.2341216895,-0.66193
 15268,-1.7694415498\C,0,6.0531623713,-0.1652607804,-2.2989046837\C,0,3
 .4418934036,-0.4420046224,-2.0995598002\C,0,2.7500163776,-1.2924084687
 ,-1.2990859082\H,0,6.0178126728,-2.9747805384,0.4518655313\H,0,8.18741
 71597,-0.270700065,-2.1149762\H,0,6.0792031232,0.612872304,-3.05492042
 55\H,0,3.0197578725,0.2933506534,-2.7686827035\O,0,8.3713678908,-2.161
 2244489,-0.248930259\H,0,9.1298966159,-1.7129323444,-0.6449541607\O,0,
 3.6018290689,-2.0580858871,-0.5330961031\C,0,3.1273326491,1.0924498462
 ,1.5221461546\H,0,2.9768865259,0.5176767739,2.4404086289\H,0,3.6385235
 159,0.4228180459,0.8199277936\C,0,3.9719662344,2.3089710072,1.82472629
 28\H,0,3.4352831312,3.1114549017,2.3325532157\C,0,5.2713112121,2.50394
 25404,1.5529632202\C,0,6.1741002612,1.5009918018,0.8861930507\H,0,6.61
 95180591,1.9264977476,-0.0207482654\H,0,7.0057366236,1.2472839298,1.55
 54277192\H,0,5.6726899336,0.5723859836,0.6094071247\C,0,5.9489695001,3
 .7950339531,1.9360123717\H,0,5.2576386622,4.4977140976,2.409821891\H,0
 ,6.7770026913,3.6036339075,2.6300141743\H,0,6.3838866659,4.2792692087,
 1.0528271079\\Version=ES64L-G16RevA.03\State=1-A\HF=-2184.7788222\RMSD
 =7.430e-09\Dipole=-0.1366962,1.7819571,-2.2213944\Quadrupole=40.022397
 6,-22.0289215,-17.9934761,20.7986779,-4.0695938,-4.6076281\PG=C01 [X(C
 39H36O9)]\\@


 CHILDREN YOU ARE VERY LITTLE,
 AND YOUR BONES ARE VERY BRITTLE;
 IF YOU WOULD GROW GREAT AND STATELY
 YOU MUST TRY TO WALK SEDATELY.
 YOU MUST STILL BE BRIGHT AND QUIET,
 AND CONTENT WITH SIMPLE DIET;
 AND REMAIN, THROUGH ALL BEWILD'RING
 INNOCENT AND HONEST CHILDREN.
     -- A CHILD'S GARDEN OF VERSE,
        ROBERT LOUIS STEVENSON
 Job cpu time:       0 days 23 hours 50 minutes  8.7 seconds.
 Elapsed time:       0 days  0 hours 27 minutes 31.3 seconds.
 File lengths (MBytes):  RWF=   1110 Int=      0 D2E=      0 Chk=    135 Scr=      2
 Normal termination of Gaussian 16 at Tue Jul 11 19:26:00 2023.
