 Entering Gaussian System, Link 0=g16
 Input=MaDA-exo-1-energy-conf-1.com
 Output=MaDA-exo-1-energy-conf-1.log
 Initial command:
 /public/home/zhoujunsu/g16/l1.exe "/public/home/zhoujunsu/g16/scratch/Gau-3898.inp" -scrdir="/public/home/zhoujunsu/g16/scratch/"
 Entering Link 1 = /public/home/zhoujunsu/g16/l1.exe PID=      3899.
  
 Copyright (c) 1988,1990,1992,1993,1995,1998,2003,2009,2016,
            Gaussian, Inc.  All Rights Reserved.
  
 This is part of the Gaussian(R) 16 program.  It is based on
 the Gaussian(R) 09 system (copyright 2009, Gaussian, Inc.),
 the Gaussian(R) 03 system (copyright 2003, Gaussian, Inc.),
 the Gaussian(R) 98 system (copyright 1998, Gaussian, Inc.),
 the Gaussian(R) 94 system (copyright 1995, Gaussian, Inc.),
 the Gaussian 92(TM) system (copyright 1992, Gaussian, Inc.),
 the Gaussian 90(TM) system (copyright 1990, Gaussian, Inc.),
 the Gaussian 88(TM) system (copyright 1988, Gaussian, Inc.),
 the Gaussian 86(TM) system (copyright 1986, Carnegie Mellon
 University), and the Gaussian 82(TM) system (copyright 1983,
 Carnegie Mellon University). Gaussian is a federally registered
 trademark of Gaussian, Inc.
  
 This software contains proprietary and confidential information,
 including trade secrets, belonging to Gaussian, Inc.
  
 This software is provided under written license and may be
 used, copied, transmitted, or stored only in accord with that
 written license.
  
 The following legend is applicable only to US Government
 contracts under FAR:
  
                    RESTRICTED RIGHTS LEGEND
  
 Use, reproduction and disclosure by the US Government is
 subject to restrictions as set forth in subparagraphs (a)
 and (c) of the Commercial Computer Software - Restricted
 Rights clause in FAR 52.227-19.
  
 Gaussian, Inc.
 340 Quinnipiac St., Bldg. 40, Wallingford CT 06492
  
  
 ---------------------------------------------------------------
 Warning -- This program may not be used in any manner that
 competes with the business of Gaussian, Inc. or will provide
 assistance to any competitor of Gaussian, Inc.  The licensee
 of this program is prohibited from giving any competitor of
 Gaussian, Inc. access to this program.  By using this program,
 the user acknowledges that Gaussian, Inc. is engaged in the
 business of creating and licensing software in the field of
 computational chemistry and represents and warrants to the
 licensee that it is not a competitor of Gaussian, Inc. and that
 it will not use this program in any manner prohibited above.
 ---------------------------------------------------------------
  

 Cite this work as:
 Gaussian 16, Revision A.03,
 M. J. Frisch, G. W. Trucks, H. B. Schlegel, G. E. Scuseria, 
 M. A. Robb, J. R. Cheeseman, G. Scalmani, V. Barone, 
 G. A. Petersson, H. Nakatsuji, X. Li, M. Caricato, A. V. Marenich, 
 J. Bloino, B. G. Janesko, R. Gomperts, B. Mennucci, H. P. Hratchian, 
 J. V. Ortiz, A. F. Izmaylov, J. L. Sonnenberg, D. Williams-Young, 
 F. Ding, F. Lipparini, F. Egidi, J. Goings, B. Peng, A. Petrone, 
 T. Henderson, D. Ranasinghe, V. G. Zakrzewski, J. Gao, N. Rega, 
 G. Zheng, W. Liang, M. Hada, M. Ehara, K. Toyota, R. Fukuda, 
 J. Hasegawa, M. Ishida, T. Nakajima, Y. Honda, O. Kitao, H. Nakai, 
 T. Vreven, K. Throssell, J. A. Montgomery, Jr., J. E. Peralta, 
 F. Ogliaro, M. J. Bearpark, J. J. Heyd, E. N. Brothers, K. N. Kudin, 
 V. N. Staroverov, T. A. Keith, R. Kobayashi, J. Normand, 
 K. Raghavachari, A. P. Rendell, J. C. Burant, S. S. Iyengar, 
 J. Tomasi, M. Cossi, J. M. Millam, M. Klene, C. Adamo, R. Cammi, 
 J. W. Ochterski, R. L. Martin, K. Morokuma, O. Farkas, 
 J. B. Foresman, and D. J. Fox, Gaussian, Inc., Wallingford CT, 2016.
 
 ******************************************
 Gaussian 16:  ES64L-G16RevA.03 25-Dec-2016
                13-Jul-2023 
 ******************************************
 %mem=50gb
 %nproc=50
 Will use up to   50 processors via shared memory.
 %chk=MaDA-exo-1-conf-1.chk
 ----------------------------------------------------------------------
 # wb97xd/6-311++G(d,p) integral(ultrafinegrid) guess=read geom=check s
 crf=(cpcm,read,solvent=water)
 ----------------------------------------------------------------------
 1/29=2,38=1,40=2,172=1/1;
 2/12=2,40=1/2;
 3/5=4,6=6,7=1111,11=2,14=-4,25=1,30=1,70=2103,72=1,74=-58,75=-5,116=-2/1,2,3;
 4/5=1/1;
 5/5=2,38=6,53=1/2;
 6/7=2,8=2,9=2,10=2,28=1/1;
 99/5=1,9=1/99;
 ----------------------------------------------------------------------
 Candidate Structure: MaDA-exo-1, Conformer: 1, Single-point energies c
 alculated with wB97X-D/6-311++G(d,p)
 ----------------------------------------------------------------------
 Structure from the checkpoint file:  "MaDA-exo-1-conf-1.chk"
 Charge =  0 Multiplicity = 1
 Redundant internal coordinates found in file.  (old form).
 C,0,9.5911788064,-2.5214601425,-9.1182020725
 C,0,10.818567439,-1.96555537,-8.7585397593
 C,0,10.861053441,-0.841683943,-7.9369572462
 C,0,9.6656792744,-0.2899956683,-7.47995536
 C,0,8.422012355,-0.8232901642,-7.8111338933
 C,0,8.4111895517,-1.9498697945,-8.6504116497
 C,0,7.1107099941,-0.2190089377,-7.348197172
 C,0,7.2079176617,0.5013704725,-5.9978019512
 O,0,7.1948883837,-2.4608098705,-8.9899596919
 O,0,11.9362330589,-2.5701641668,-9.2447749454
 C,0,7.765320973,-0.4104697366,-4.9060904323
 C,0,8.5237563613,0.1379258843,-3.743124678
 O,0,7.4796496464,-1.6003010934,-4.9276679715
 C,0,8.3865016574,-0.5647482443,-2.5380244409
 C,0,8.9334714044,-0.1083106717,-1.3562255978
 C,0,9.7065556455,1.0583356531,-1.3679380489
 C,0,9.9357210201,1.7584951783,-2.555674937
 C,0,9.2971327633,1.3130757792,-3.7220306192
 O,0,9.4950913966,2.0018045896,-4.878274521
 O,0,10.2865578135,1.5366026375,-0.2400400614
 C,0,10.9043398957,2.9249231653,-2.6096245226
 C,0,10.2481509483,4.2395981139,-2.9492231757
 C,0,10.469875482,5.0317647443,-4.0091681271
 C,0,9.7060014971,6.3219680632,-4.1677523546
 C,0,11.4616899347,4.755645628,-5.1116905208
 O,0,7.3750730563,5.7173528294,-1.2938653948
 C,0,7.2128348886,4.3650940534,-1.0778299412
 C,0,7.67726824,4.004525083,0.1449457102
 C,0,8.3073114323,7.5518443026,0.0147940596
 C,0,7.9617985244,6.2233048209,-0.1775523828
 C,0,8.1750524415,5.2067893826,0.7623695654
 C,0,8.7825691472,5.5426968005,1.976861464
 C,0,9.1439573276,6.8621380749,2.2030568212
 C,0,8.907897232,7.8575222808,1.2332741149
 C,0,6.5686567604,0.7519947864,-8.4081361213
 C,0,4.4963824958,2.1105919184,-9.0475756698
 C,0,5.3292922782,1.487039863,-7.96312505
 C,0,4.9970752234,1.5680182026,-6.6689566791
 C,0,5.7993110149,0.9807385751,-5.5282495265
 O,0,5.2961105083,0.2698821607,-2.8678721415
 C,0,6.4536211696,3.2527111962,-4.5690777134
 C,0,5.9601756963,1.9543791215,-4.3732484169
 C,0,5.791462882,1.5242122867,-3.0492047546
 C,0,6.1522437567,2.3178296648,-1.9665222359
 C,0,6.6944025333,3.5834726128,-2.1956862202
 C,0,6.8062603492,4.0675468109,-3.4963901828
 O,0,9.255380934,9.1561325332,1.4406167812
 O,0,6.6774405053,3.7673531391,-5.80697234
 H,0,9.5709086556,-3.3969408245,-9.7614447688
 H,0,11.8127765496,-0.4008708347,-7.6533849401
 H,0,9.719565783,0.5830607017,-6.8351491903
 H,0,6.3864844054,-1.0326217582,-7.2394666966
 H,0,7.8352039178,1.3871790291,-6.0976486695
 H,0,7.3163473772,-3.2319531418,-9.5590407007
 H,0,12.7176192313,-2.0990264334,-8.9269046089
 H,0,7.7902591632,-1.4701515282,-2.5452881867
 H,0,8.775985492,-0.6502158294,-0.4280390383
 H,0,9.6103198178,2.9441586636,-4.6610755926
 H,0,10.0850202979,0.950310766,0.5013345726
 H,0,11.3834597828,3.0172112073,-1.6311882902
 H,0,11.6994161426,2.6852432343,-3.3240792168
 H,0,9.5023807384,4.5621475707,-2.2263220337
 H,0,9.0551503491,6.5172154509,-3.3105583894
 H,0,10.3949015764,7.1685071935,-4.2782812699
 H,0,9.0879751505,6.2957417317,-5.0744890751
 H,0,11.9416181441,3.7773954973,-5.0374751612
 H,0,10.9689233102,4.818293175,-6.089721187
 H,0,12.2493504549,5.5187629518,-5.1068779266
 H,0,7.7119736418,2.9999648908,0.5410255759
 H,0,8.1285758589,8.3161128237,-0.7325471355
 H,0,8.9712937476,4.7883957421,2.733979955
 H,0,9.6175570846,7.138232991,3.1414135424
 H,0,7.346722837,1.4818064738,-8.6766206992
 H,0,6.3489566672,0.1955668208,-9.3275011441
 H,0,3.6520699193,2.6748098209,-8.6414456118
 H,0,5.1052955949,2.7884217011,-9.6583950355
 H,0,4.1070353938,1.3393128455,-9.7233325569
 H,0,4.0809904795,2.0832988423,-6.3801932968
 H,0,5.2521032747,0.1083052576,-5.1545939585
 H,0,5.3569209274,0.0359519232,-1.9324635476
 H,0,6.0352279701,1.9414431396,-0.9547181226
 H,0,7.2164721691,5.0494044761,-3.6973138653
 H,0,9.6552983376,9.248974188,2.3151139759
 H,0,6.2486359544,3.2036436353,-6.4759037009
 Recover connectivity data from disk.
                           ----------------------------
                           !    Current Parameters    !
                           ! (Angstroms and Degrees)  !
 --------------------------                            --------------------------
 ! Name  Definition              Value                                          !
 --------------------------------------------------------------------------------
 ! R1    R(1,2)                  1.3946                                         !
 ! R2    R(1,6)                  1.3921                                         !
 ! R3    R(1,49)                 1.0866                                         !
 ! R4    R(2,3)                  1.3928                                         !
 ! R5    R(2,10)                 1.3606                                         !
 ! R6    R(3,4)                  1.3936                                         !
 ! R7    R(3,50)                 1.0865                                         !
 ! R8    R(4,5)                  1.3931                                         !
 ! R9    R(4,51)                 1.0867                                         !
 ! R10   R(5,6)                  1.4049                                         !
 ! R11   R(5,7)                  1.5162                                         !
 ! R12   R(6,9)                  1.3623                                         !
 ! R13   R(7,8)                  1.5336                                         !
 ! R14   R(7,35)                 1.5363                                         !
 ! R15   R(7,52)                 1.0947                                         !
 ! R16   R(8,11)                 1.5277                                         !
 ! R17   R(8,39)                 1.5603                                         !
 ! R18   R(8,53)                 1.09                                           !
 ! R19   R(9,54)                 0.9661                                         !
 ! R20   R(10,55)                0.9662                                         !
 ! R21   R(11,12)                1.4928                                         !
 ! R22   R(11,13)                1.2238                                         !
 ! R23   R(12,14)                1.4017                                         !
 ! R24   R(12,18)                1.407                                          !
 ! R25   R(14,15)                1.3799                                         !
 ! R26   R(14,56)                1.0841                                         !
 ! R27   R(15,16)                1.3996                                         !
 ! R28   R(15,57)                1.0863                                         !
 ! R29   R(16,17)                1.3977                                         !
 ! R30   R(16,20)                1.3555                                         !
 ! R31   R(17,18)                1.4023                                         !
 ! R32   R(17,21)                1.5171                                         !
 ! R33   R(18,19)                1.3603                                         !
 ! R34   R(19,58)                0.9739                                         !
 ! R35   R(20,59)                0.9664                                         !
 ! R36   R(21,22)                1.5081                                         !
 ! R37   R(21,60)                1.0933                                         !
 ! R38   R(21,61)                1.0955                                         !
 ! R39   R(22,23)                1.3417                                         !
 ! R40   R(22,62)                1.0876                                         !
 ! R41   R(23,24)                1.5077                                         !
 ! R42   R(23,25)                1.5085                                         !
 ! R43   R(24,63)                1.0939                                         !
 ! R44   R(24,64)                1.097                                          !
 ! R45   R(24,65)                1.0976                                         !
 ! R46   R(25,66)                1.0922                                         !
 ! R47   R(25,67)                1.0969                                         !
 ! R48   R(25,68)                1.0967                                         !
 ! R49   R(26,27)                1.379                                          !
 ! R50   R(26,30)                1.3588                                         !
 ! R51   R(27,28)                1.3568                                         !
 ! R52   R(27,45)                1.4592                                         !
 ! R53   R(28,31)                1.4403                                         !
 ! R54   R(28,69)                1.0804                                         !
 ! R55   R(29,30)                1.3861                                         !
 ! R56   R(29,34)                1.3924                                         !
 ! R57   R(29,70)                1.0838                                         !
 ! R58   R(30,31)                1.4008                                         !
 ! R59   R(31,32)                1.3989                                         !
 ! R60   R(32,33)                1.3866                                         !
 ! R61   R(32,71)                1.0853                                         !
 ! R62   R(33,34)                1.4096                                         !
 ! R63   R(33,72)                1.0868                                         !
 ! R64   R(34,47)                1.3602                                         !
 ! R65   R(35,37)                1.5081                                         !
 ! R66   R(35,73)                1.1                                            !
 ! R67   R(35,74)                1.0969                                         !
 ! R68   R(36,37)                1.5029                                         !
 ! R69   R(36,75)                1.0937                                         !
 ! R70   R(36,76)                1.097                                          !
 ! R71   R(36,77)                1.0969                                         !
 ! R72   R(37,38)                1.3386                                         !
 ! R73   R(38,39)                1.5132                                         !
 ! R74   R(38,78)                1.09                                           !
 ! R75   R(39,42)                1.5192                                         !
 ! R76   R(39,79)                1.0955                                         !
 ! R77   R(40,43)                1.3607                                         !
 ! R78   R(40,80)                0.9661                                         !
 ! R79   R(41,42)                1.4027                                         !
 ! R80   R(41,46)                1.3925                                         !
 ! R81   R(41,48)                1.3592                                         !
 ! R82   R(42,43)                1.4024                                         !
 ! R83   R(43,44)                1.39                                           !
 ! R84   R(44,45)                1.3958                                         !
 ! R85   R(44,81)                1.0859                                         !
 ! R86   R(45,46)                1.3924                                         !
 ! R87   R(46,82)                1.0829                                         !
 ! R88   R(47,83)                0.9661                                         !
 ! R89   R(48,84)                0.9742                                         !
 ! A1    A(2,1,6)              119.7146                                         !
 ! A2    A(2,1,49)             119.3583                                         !
 ! A3    A(6,1,49)             120.9271                                         !
 ! A4    A(1,2,3)              120.0414                                         !
 ! A5    A(1,2,10)             116.9799                                         !
 ! A6    A(3,2,10)             122.9786                                         !
 ! A7    A(2,3,4)              119.1244                                         !
 ! A8    A(2,3,50)             120.5341                                         !
 ! A9    A(4,3,50)             120.3413                                         !
 ! A10   A(3,4,5)              122.428                                          !
 ! A11   A(3,4,51)             118.0403                                         !
 ! A12   A(5,4,51)             119.5295                                         !
 ! A13   A(4,5,6)              117.1208                                         !
 ! A14   A(4,5,7)              123.1555                                         !
 ! A15   A(6,5,7)              119.6913                                         !
 ! A16   A(1,6,5)              121.5659                                         !
 ! A17   A(1,6,9)              121.2692                                         !
 ! A18   A(5,6,9)              117.1649                                         !
 ! A19   A(5,7,8)              113.6552                                         !
 ! A20   A(5,7,35)             110.2668                                         !
 ! A21   A(5,7,52)             107.8355                                         !
 ! A22   A(8,7,35)             109.4503                                         !
 ! A23   A(8,7,52)             107.674                                          !
 ! A24   A(35,7,52)            107.7503                                         !
 ! A25   A(7,8,11)             111.8384                                         !
 ! A26   A(7,8,39)             110.6148                                         !
 ! A27   A(7,8,53)             109.7276                                         !
 ! A28   A(11,8,39)            107.3203                                         !
 ! A29   A(11,8,53)            109.9093                                         !
 ! A30   A(39,8,53)            107.3038                                         !
 ! A31   A(6,9,54)             109.5098                                         !
 ! A32   A(2,10,55)            109.2731                                         !
 ! A33   A(8,11,12)            121.521                                          !
 ! A34   A(8,11,13)            118.8493                                         !
 ! A35   A(12,11,13)           119.3066                                         !
 ! A36   A(11,12,14)           115.8403                                         !
 ! A37   A(11,12,18)           126.7115                                         !
 ! A38   A(14,12,18)           117.3633                                         !
 ! A39   A(12,14,15)           122.1181                                         !
 ! A40   A(12,14,56)           117.8232                                         !
 ! A41   A(15,14,56)           119.999                                          !
 ! A42   A(14,15,16)           119.1763                                         !
 ! A43   A(14,15,57)           120.6182                                         !
 ! A44   A(16,15,57)           120.2031                                         !
 ! A45   A(15,16,17)           121.0143                                         !
 ! A46   A(15,16,20)           121.5678                                         !
 ! A47   A(17,16,20)           117.4008                                         !
 ! A48   A(16,17,18)           118.2303                                         !
 ! A49   A(16,17,21)           121.3357                                         !
 ! A50   A(18,17,21)           120.3552                                         !
 ! A51   A(12,18,17)           121.8752                                         !
 ! A52   A(12,18,19)           119.3494                                         !
 ! A53   A(17,18,19)           118.6767                                         !
 ! A54   A(18,19,58)           108.5153                                         !
 ! A55   A(16,20,59)           109.5753                                         !
 ! A56   A(17,21,22)           113.6061                                         !
 ! A57   A(17,21,60)           108.2312                                         !
 ! A58   A(17,21,61)           108.5637                                         !
 ! A59   A(22,21,60)           108.5789                                         !
 ! A60   A(22,21,61)           111.0801                                         !
 ! A61   A(60,21,61)           106.503                                          !
 ! A62   A(21,22,23)           128.3668                                         !
 ! A63   A(21,22,62)           114.0313                                         !
 ! A64   A(23,22,62)           117.6018                                         !
 ! A65   A(22,23,24)           120.3048                                         !
 ! A66   A(22,23,25)           125.3086                                         !
 ! A67   A(24,23,25)           114.3853                                         !
 ! A68   A(23,24,63)           111.8249                                         !
 ! A69   A(23,24,64)           110.6576                                         !
 ! A70   A(23,24,65)           110.5914                                         !
 ! A71   A(63,24,64)           108.3529                                         !
 ! A72   A(63,24,65)           108.4574                                         !
 ! A73   A(64,24,65)           106.7856                                         !
 ! A74   A(23,25,66)           113.7791                                         !
 ! A75   A(23,25,67)           110.2332                                         !
 ! A76   A(23,25,68)           109.9768                                         !
 ! A77   A(66,25,67)           108.0075                                         !
 ! A78   A(66,25,68)           107.8997                                         !
 ! A79   A(67,25,68)           106.6666                                         !
 ! A80   A(27,26,30)           106.6921                                         !
 ! A81   A(26,27,28)           111.1934                                         !
 ! A82   A(26,27,45)           116.5545                                         !
 ! A83   A(28,27,45)           132.0411                                         !
 ! A84   A(27,28,31)           106.4279                                         !
 ! A85   A(27,28,69)           126.0503                                         !
 ! A86   A(31,28,69)           127.4373                                         !
 ! A87   A(30,29,34)           116.0624                                         !
 ! A88   A(30,29,70)           122.6216                                         !
 ! A89   A(34,29,70)           121.3157                                         !
 ! A90   A(26,30,29)           125.3452                                         !
 ! A91   A(26,30,31)           110.2901                                         !
 ! A92   A(29,30,31)           124.3645                                         !
 ! A93   A(28,31,30)           105.3959                                         !
 ! A94   A(28,31,32)           136.2783                                         !
 ! A95   A(30,31,32)           118.3206                                         !
 ! A96   A(31,32,33)           118.9013                                         !
 ! A97   A(31,32,71)           120.9504                                         !
 ! A98   A(33,32,71)           120.1483                                         !
 ! A99   A(32,33,34)           121.0684                                         !
 ! A100  A(32,33,72)           119.7475                                         !
 ! A101  A(34,33,72)           119.1841                                         !
 ! A102  A(29,34,33)           121.282                                          !
 ! A103  A(29,34,47)           116.9475                                         !
 ! A104  A(33,34,47)           121.7705                                         !
 ! A105  A(7,35,37)            113.2308                                         !
 ! A106  A(7,35,73)            109.7646                                         !
 ! A107  A(7,35,74)            109.1675                                         !
 ! A108  A(37,35,73)           109.2644                                         !
 ! A109  A(37,35,74)           109.2673                                         !
 ! A110  A(73,35,74)           105.882                                          !
 ! A111  A(37,36,75)           111.9588                                         !
 ! A112  A(37,36,76)           110.5204                                         !
 ! A113  A(37,36,77)           110.4588                                         !
 ! A114  A(75,36,76)           108.4527                                         !
 ! A115  A(75,36,77)           108.512                                          !
 ! A116  A(76,36,77)           106.7672                                         !
 ! A117  A(35,37,36)           116.4079                                         !
 ! A118  A(35,37,38)           121.2476                                         !
 ! A119  A(36,37,38)           122.344                                          !
 ! A120  A(37,38,39)           125.0142                                         !
 ! A121  A(37,38,78)           119.5586                                         !
 ! A122  A(39,38,78)           115.4256                                         !
 ! A123  A(8,39,38)            111.7778                                         !
 ! A124  A(8,39,42)            109.2756                                         !
 ! A125  A(8,39,79)            107.9937                                         !
 ! A126  A(38,39,42)           112.367                                          !
 ! A127  A(38,39,79)           107.5404                                         !
 ! A128  A(42,39,79)           107.6959                                         !
 ! A129  A(43,40,80)           109.2267                                         !
 ! A130  A(42,41,46)           121.546                                          !
 ! A131  A(42,41,48)           122.3821                                         !
 ! A132  A(46,41,48)           115.9979                                         !
 ! A133  A(39,42,41)           121.6233                                         !
 ! A134  A(39,42,43)           120.5636                                         !
 ! A135  A(41,42,43)           117.2623                                         !
 ! A136  A(40,43,42)           116.8961                                         !
 ! A137  A(40,43,44)           121.1297                                         !
 ! A138  A(42,43,44)           121.9404                                         !
 ! A139  A(43,44,45)           119.3816                                         !
 ! A140  A(43,44,81)           119.9931                                         !
 ! A141  A(45,44,81)           120.6062                                         !
 ! A142  A(27,45,44)           119.8622                                         !
 ! A143  A(27,45,46)           120.0576                                         !
 ! A144  A(44,45,46)           119.9879                                         !
 ! A145  A(41,46,45)           119.7258                                         !
 ! A146  A(41,46,82)           118.9188                                         !
 ! A147  A(45,46,82)           121.264                                          !
 ! A148  A(34,47,83)           109.6024                                         !
 ! A149  A(41,48,84)           109.499                                          !
 ! D1    D(6,1,2,3)             -0.1302                                         !
 ! D2    D(6,1,2,10)           179.8728                                         !
 ! D3    D(49,1,2,3)           179.8661                                         !
 ! D4    D(49,1,2,10)           -0.1309                                         !
 ! D5    D(2,1,6,5)             -0.4251                                         !
 ! D6    D(2,1,6,9)            179.5041                                         !
 ! D7    D(49,1,6,5)           179.5787                                         !
 ! D8    D(49,1,6,9)            -0.4921                                         !
 ! D9    D(1,2,3,4)              0.2505                                         !
 ! D10   D(1,2,3,50)          -179.8785                                         !
 ! D11   D(10,2,3,4)          -179.7527                                         !
 ! D12   D(10,2,3,50)            0.1184                                         !
 ! D13   D(1,2,10,55)         -179.8471                                         !
 ! D14   D(3,2,10,55)            0.156                                          !
 ! D15   D(2,3,4,5)              0.1827                                         !
 ! D16   D(2,3,4,51)           179.6389                                         !
 ! D17   D(50,3,4,5)          -179.6886                                         !
 ! D18   D(50,3,4,51)           -0.2324                                         !
 ! D19   D(3,4,5,6)             -0.7057                                         !
 ! D20   D(3,4,5,7)           -178.6246                                         !
 ! D21   D(51,4,5,6)           179.846                                          !
 ! D22   D(51,4,5,7)             1.9271                                         !
 ! D23   D(4,5,6,1)              0.8247                                         !
 ! D24   D(4,5,6,9)           -179.1073                                         !
 ! D25   D(7,5,6,1)            178.8192                                         !
 ! D26   D(7,5,6,9)             -1.1129                                         !
 ! D27   D(4,5,7,8)            -29.8422                                         !
 ! D28   D(4,5,7,35)            93.4748                                         !
 ! D29   D(4,5,7,52)          -149.125                                          !
 ! D30   D(6,5,7,8)            152.29                                           !
 ! D31   D(6,5,7,35)           -84.3929                                         !
 ! D32   D(6,5,7,52)            33.0072                                         !
 ! D33   D(1,6,9,54)             0.5608                                         !
 ! D34   D(5,6,9,54)          -179.507                                          !
 ! D35   D(5,7,8,11)           -55.2623                                         !
 ! D36   D(5,7,8,39)          -174.8279                                         !
 ! D37   D(5,7,8,53)            66.9758                                         !
 ! D38   D(35,7,8,11)         -179.0242                                         !
 ! D39   D(35,7,8,39)           61.4102                                         !
 ! D40   D(35,7,8,53)          -56.7861                                         !
 ! D41   D(52,7,8,11)           64.1126                                         !
 ! D42   D(52,7,8,39)          -55.453                                          !
 ! D43   D(52,7,8,53)         -173.6493                                         !
 ! D44   D(5,7,35,37)         -174.7702                                         !
 ! D45   D(5,7,35,73)          -52.3756                                         !
 ! D46   D(5,7,35,74)           63.2669                                         !
 ! D47   D(8,7,35,37)          -49.0382                                         !
 ! D48   D(8,7,35,73)           73.3565                                         !
 ! D49   D(8,7,35,74)         -171.001                                          !
 ! D50   D(52,7,35,37)          67.7769                                         !
 ! D51   D(52,7,35,73)        -169.8284                                         !
 ! D52   D(52,7,35,74)         -54.1859                                         !
 ! D53   D(7,8,11,12)          151.6333                                         !
 ! D54   D(7,8,11,13)          -34.9403                                         !
 ! D55   D(39,8,11,12)         -86.8805                                         !
 ! D56   D(39,8,11,13)          86.5459                                         !
 ! D57   D(53,8,11,12)          29.4992                                         !
 ! D58   D(53,8,11,13)        -157.0745                                         !
 ! D59   D(7,8,39,38)          -42.02                                           !
 ! D60   D(7,8,39,42)         -167.0385                                         !
 ! D61   D(7,8,39,79)           76.0788                                         !
 ! D62   D(11,8,39,38)        -164.2708                                         !
 ! D63   D(11,8,39,42)          70.7108                                         !
 ! D64   D(11,8,39,79)         -46.1719                                         !
 ! D65   D(53,8,39,38)          77.645                                          !
 ! D66   D(53,8,39,42)         -47.3735                                         !
 ! D67   D(53,8,39,79)        -164.2561                                         !
 ! D68   D(8,11,12,14)         147.9034                                         !
 ! D69   D(8,11,12,18)         -28.6361                                         !
 ! D70   D(13,11,12,14)        -25.4936                                         !
 ! D71   D(13,11,12,18)        157.9669                                         !
 ! D72   D(11,12,14,15)       -174.1994                                         !
 ! D73   D(11,12,14,56)          2.9871                                         !
 ! D74   D(18,12,14,15)          2.6773                                         !
 ! D75   D(18,12,14,56)        179.8638                                         !
 ! D76   D(11,12,18,17)        177.9131                                         !
 ! D77   D(11,12,18,19)         -5.7487                                         !
 ! D78   D(14,12,18,17)          1.42                                           !
 ! D79   D(14,12,18,19)        177.7583                                         !
 ! D80   D(12,14,15,16)         -3.2287                                         !
 ! D81   D(12,14,15,57)        177.3466                                         !
 ! D82   D(56,14,15,16)        179.6445                                         !
 ! D83   D(56,14,15,57)          0.2198                                         !
 ! D84   D(14,15,16,17)         -0.3353                                         !
 ! D85   D(14,15,16,20)       -178.7933                                         !
 ! D86   D(57,15,16,17)        179.0918                                         !
 ! D87   D(57,15,16,20)          0.6338                                         !
 ! D88   D(15,16,17,18)          4.2176                                         !
 ! D89   D(15,16,17,21)       -172.5652                                         !
 ! D90   D(20,16,17,18)       -177.2622                                         !
 ! D91   D(20,16,17,21)          5.955                                          !
 ! D92   D(15,16,20,59)          0.8308                                         !
 ! D93   D(17,16,20,59)       -177.6806                                         !
 ! D94   D(16,17,18,12)         -4.7816                                         !
 ! D95   D(16,17,18,19)        178.8563                                         !
 ! D96   D(21,17,18,12)        172.0339                                         !
 ! D97   D(21,17,18,19)         -4.3281                                         !
 ! D98   D(16,17,21,22)       -116.4391                                         !
 ! D99   D(16,17,21,60)          4.2268                                         !
 ! D100  D(16,17,21,61)        119.4479                                         !
 ! D101  D(18,17,21,22)         66.8458                                         !
 ! D102  D(18,17,21,60)       -172.4883                                         !
 ! D103  D(18,17,21,61)        -57.2672                                         !
 ! D104  D(12,18,19,58)        150.7181                                         !
 ! D105  D(17,18,19,58)        -32.826                                          !
 ! D106  D(17,21,22,23)       -118.153                                          !
 ! D107  D(17,21,22,62)         61.7208                                         !
 ! D108  D(60,21,22,23)        121.377                                          !
 ! D109  D(60,21,22,62)        -58.7492                                         !
 ! D110  D(61,21,22,23)          4.5856                                         !
 ! D111  D(61,21,22,62)       -175.5406                                         !
 ! D112  D(21,22,23,24)       -179.8084                                         !
 ! D113  D(21,22,23,25)         -0.2329                                         !
 ! D114  D(62,22,23,24)          0.3216                                         !
 ! D115  D(62,22,23,25)        179.8971                                         !
 ! D116  D(22,23,24,63)          3.898                                          !
 ! D117  D(22,23,24,64)        124.7935                                         !
 ! D118  D(22,23,24,65)       -117.0847                                         !
 ! D119  D(25,23,24,63)       -175.7216                                         !
 ! D120  D(25,23,24,64)        -54.8261                                         !
 ! D121  D(25,23,24,65)         63.2957                                         !
 ! D122  D(22,23,25,66)          5.7991                                         !
 ! D123  D(22,23,25,67)        127.2953                                         !
 ! D124  D(22,23,25,68)       -115.368                                          !
 ! D125  D(24,23,25,66)       -174.6033                                         !
 ! D126  D(24,23,25,67)        -53.1071                                         !
 ! D127  D(24,23,25,68)         64.2296                                         !
 ! D128  D(30,26,27,28)          0.1749                                         !
 ! D129  D(30,26,27,45)       -175.1881                                         !
 ! D130  D(27,26,30,29)        179.6187                                         !
 ! D131  D(27,26,30,31)         -0.253                                          !
 ! D132  D(26,27,28,31)         -0.0309                                         !
 ! D133  D(26,27,28,69)       -176.8836                                         !
 ! D134  D(45,27,28,31)        174.3813                                         !
 ! D135  D(45,27,28,69)         -2.4714                                         !
 ! D136  D(26,27,45,44)       -162.0524                                         !
 ! D137  D(26,27,45,46)         21.4401                                         !
 ! D138  D(28,27,45,44)         23.7727                                         !
 ! D139  D(28,27,45,46)       -152.7348                                         !
 ! D140  D(27,28,31,30)         -0.1201                                         !
 ! D141  D(27,28,31,32)       -179.2381                                         !
 ! D142  D(69,28,31,30)        176.6752                                         !
 ! D143  D(69,28,31,32)         -2.4428                                         !
 ! D144  D(34,29,30,26)       -179.64                                           !
 ! D145  D(34,29,30,31)          0.2141                                         !
 ! D146  D(70,29,30,26)          0.1761                                         !
 ! D147  D(70,29,30,31)       -179.9697                                         !
 ! D148  D(30,29,34,33)          0.0263                                         !
 ! D149  D(30,29,34,47)        179.95                                           !
 ! D150  D(70,29,34,33)       -179.7925                                         !
 ! D151  D(70,29,34,47)          0.1312                                         !
 ! D152  D(26,30,31,28)          0.2331                                         !
 ! D153  D(26,30,31,32)        179.5406                                         !
 ! D154  D(29,30,31,28)       -179.6401                                         !
 ! D155  D(29,30,31,32)         -0.3326                                         !
 ! D156  D(28,31,32,33)        179.2347                                         !
 ! D157  D(28,31,32,71)         -0.7468                                         !
 ! D158  D(30,31,32,33)          0.2007                                         !
 ! D159  D(30,31,32,71)       -179.7809                                         !
 ! D160  D(31,32,33,34)          0.0223                                         !
 ! D161  D(31,32,33,72)       -179.9486                                         !
 ! D162  D(71,32,33,34)       -179.996                                          !
 ! D163  D(71,32,33,72)          0.0331                                         !
 ! D164  D(32,33,34,29)         -0.1416                                         !
 ! D165  D(32,33,34,47)        179.9384                                         !
 ! D166  D(72,33,34,29)        179.8295                                         !
 ! D167  D(72,33,34,47)         -0.0905                                         !
 ! D168  D(29,34,47,83)        179.6476                                         !
 ! D169  D(33,34,47,83)         -0.4291                                         !
 ! D170  D(7,35,37,36)        -161.4377                                         !
 ! D171  D(7,35,37,38)          18.3075                                         !
 ! D172  D(73,35,37,36)         75.8898                                         !
 ! D173  D(73,35,37,38)       -104.365                                          !
 ! D174  D(74,35,37,36)        -39.5307                                         !
 ! D175  D(74,35,37,38)        140.2145                                         !
 ! D176  D(75,36,37,35)       -176.5093                                         !
 ! D177  D(75,36,37,38)          3.7485                                         !
 ! D178  D(76,36,37,35)        -55.491                                          !
 ! D179  D(76,36,37,38)        124.7669                                         !
 ! D180  D(77,36,37,35)         62.4396                                         !
 ! D181  D(77,36,37,38)       -117.3026                                         !
 ! D182  D(35,37,38,39)          1.1564                                         !
 ! D183  D(35,37,38,78)       -178.3682                                         !
 ! D184  D(36,37,38,39)       -179.1137                                         !
 ! D185  D(36,37,38,78)          1.3617                                         !
 ! D186  D(37,38,39,8)          11.0393                                         !
 ! D187  D(37,38,39,42)        134.3244                                         !
 ! D188  D(37,38,39,79)       -107.3301                                         !
 ! D189  D(78,38,39,8)        -169.4186                                         !
 ! D190  D(78,38,39,42)        -46.1334                                         !
 ! D191  D(78,38,39,79)         72.212                                          !
 ! D192  D(8,39,42,41)          72.0048                                         !
 ! D193  D(8,39,42,43)         -99.2497                                         !
 ! D194  D(38,39,42,41)        -52.6705                                         !
 ! D195  D(38,39,42,43)        136.0749                                         !
 ! D196  D(79,39,42,41)       -170.9242                                         !
 ! D197  D(79,39,42,43)         17.8212                                         !
 ! D198  D(80,40,43,42)        171.0638                                         !
 ! D199  D(80,40,43,44)         -6.8638                                         !
 ! D200  D(46,41,42,39)       -169.3673                                         !
 ! D201  D(46,41,42,43)          2.1633                                         !
 ! D202  D(48,41,42,39)          7.3767                                         !
 ! D203  D(48,41,42,43)        178.9073                                         !
 ! D204  D(42,41,46,45)          1.2381                                         !
 ! D205  D(42,41,46,82)        177.8042                                         !
 ! D206  D(48,41,46,45)       -175.7029                                         !
 ! D207  D(48,41,46,82)          0.8632                                         !
 ! D208  D(42,41,48,84)         13.7267                                         !
 ! D209  D(46,41,48,84)       -169.3603                                         !
 ! D210  D(39,42,43,40)         -9.1986                                         !
 ! D211  D(39,42,43,44)        168.7109                                         !
 ! D212  D(41,42,43,40)        179.1761                                         !
 ! D213  D(41,42,43,44)         -2.9143                                         !
 ! D214  D(40,43,44,45)        178.0696                                         !
 ! D215  D(40,43,44,81)         -0.3533                                         !
 ! D216  D(42,43,44,45)          0.2476                                         !
 ! D217  D(42,43,44,81)       -178.1753                                         !
 ! D218  D(43,44,45,27)       -173.2409                                         !
 ! D219  D(43,44,45,46)          3.2691                                         !
 ! D220  D(81,44,45,27)          5.1721                                         !
 ! D221  D(81,44,45,46)       -178.318                                          !
 ! D222  D(27,45,46,41)        172.5034                                         !
 ! D223  D(27,45,46,82)         -3.9802                                         !
 ! D224  D(44,45,46,41)         -3.9997                                         !
 ! D225  D(44,45,46,82)        179.5167                                         !
 --------------------------------------------------------------------------------
 Stoichiometry    C39H36O9
 Framework group  C1[X(C39H36O9)]
 Deg. of freedom   246
 Full point group                 C1      NOp   1
 Largest Abelian subgroup         C1      NOp   1
 Largest concise Abelian subgroup C1      NOp   1
                         Standard orientation:                         
 ---------------------------------------------------------------------
 Center     Atomic      Atomic             Coordinates (Angstroms)
 Number     Number       Type             X           Y           Z
 ---------------------------------------------------------------------
      1          6           0        6.868461    1.655005   -0.280296
      2          6           0        6.181631    2.726730   -0.849981
      3          6           0        4.825393    2.608523   -1.144151
      4          6           0        4.170760    1.412279   -0.856775
      5          6           0        4.821978    0.324193   -0.279910
      6          6           0        6.192037    0.469792   -0.005275
      7          6           0        4.133532   -0.994842    0.011932
      8          6           0        2.637117   -0.853745    0.316557
      9          8           0        6.833870   -0.600136    0.541576
     10          8           0        6.896190    3.858807   -1.092800
     11          6           0        2.380150    0.122755    1.463031
     12          6           0        1.109584    0.900942    1.555432
     13          8           0        3.183603    0.175988    2.384660
     14          6           0        0.660070    1.185026    2.852386
     15          6           0       -0.555865    1.792310    3.090857
     16          6           0       -1.339758    2.199440    2.005216
     17          6           0       -0.905676    2.005984    0.690831
     18          6           0        0.295285    1.312018    0.484233
     19          8           0        0.714281    1.098010   -0.792120
     20          8           0       -2.530481    2.822041    2.183664
     21          6           0       -1.665756    2.590016   -0.485125
     22          6           0       -2.236766    1.547305   -1.413017
     23          6           0       -1.959110    1.344947   -2.709987
     24          6           0       -2.646735    0.240449   -3.471914
     25          6           0       -0.986222    2.155166   -3.530065
     26          8           0       -4.330988   -1.267591   -0.480740
     27          6           0       -3.607024   -1.009725    0.664239
     28          6           0       -4.318372   -0.248421    1.533313
     29          6           0       -6.556973   -0.651955   -1.263684
     30          6           0       -5.531251   -0.648370   -0.331334
     31          6           0       -5.590385    0.004237    0.906746
     32          6           0       -6.755166    0.707768    1.231136
     33          6           0       -7.801283    0.727864    0.321231
     34          6           0       -7.704792    0.054068   -0.913143
     35          6           0        4.327240   -1.967286   -1.161511
     36          6           0        4.015108   -4.413658   -1.844761
     37          6           0        3.564145   -3.257617   -0.996945
     38          6           0        2.545062   -3.356526   -0.134690
     39          6           0        2.029160   -2.229104    0.732754
     40          8           0        0.498010   -2.021779    3.067006
     41          6           0       -0.205138   -2.059973   -0.487614
     42          6           0        0.513119   -2.133260    0.714982
     43          6           0       -0.202653   -1.931951    1.903992
     44          6           0       -1.555170   -1.611186    1.902811
     45          6           0       -2.228957   -1.489039    0.686507
     46          6           0       -1.563555   -1.754551   -0.507401
     47          8           0       -8.722466    0.063310   -1.815573
     48          8           0        0.388000   -2.216697   -1.700445
     49          1           0        7.926862    1.758600   -0.057371
     50          1           0        4.282912    3.437720   -1.589856
     51          1           0        3.111322    1.341368   -1.088010
     52          1           0        4.611910   -1.435067    0.892640
     53          1           0        2.109116   -0.523229   -0.577921
     54          1           0        7.762092   -0.377841    0.690764
     55          1           0        6.315228    4.525165   -1.482707
     56          1           0        1.280659    0.869587    3.683458
     57          1           0       -0.899430    1.962439    4.107229
     58          1           0       -0.068938    0.987683   -1.360346
     59          1           0       -2.701727    2.928580    3.128818
     60          1           0       -2.487558    3.196053   -0.094266
     61          1           0       -1.002231    3.275562   -1.023455
     62          1           0       -2.962763    0.887083   -0.944154
     63          1           0       -3.395607   -0.270620   -2.859942
     64          1           0       -3.143691    0.637955   -4.365476
     65          1           0       -1.916364   -0.501729   -3.819112
     66          1           0       -0.425757    2.890498   -2.948706
     67          1           0       -0.265056    1.493761   -4.025798
     68          1           0       -1.520437    2.689929   -4.324687
     69          1           0       -3.965659    0.132798    2.480673
     70          1           0       -6.480925   -1.167431   -2.213985
     71          1           0       -6.845539    1.231725    2.177242
     72          1           0       -8.712198    1.270863    0.558772
     73          1           0        4.022182   -1.482465   -2.100652
     74          1           0        5.395533   -2.190135   -1.271974
     75          1           0        3.375903   -5.291275   -1.713039
     76          1           0        4.010472   -4.136901   -2.906228
     77          1           0        5.045996   -4.693026   -1.595095
     78          1           0        2.029706   -4.309936   -0.018386
     79          1           0        2.337594   -2.437577    1.763095
     80          1           0       -0.060909   -1.728869    3.798595
     81          1           0       -2.071612   -1.433015    2.841240
     82          1           0       -2.068288   -1.673830   -1.462083
     83          1           0       -9.462508    0.575404   -1.464294
     84          1           0        1.280207   -2.589080   -1.580412
 ---------------------------------------------------------------------
 Rotational constants (GHZ):           0.1265988           0.0388194           0.0371486
 Standard basis: 6-311++G(d,p) (5D, 7F)
 There are  1356 symmetry adapted cartesian basis functions of A   symmetry.
 There are  1308 symmetry adapted basis functions of A   symmetry.
  1308 basis functions,  2052 primitive gaussians,  1356 cartesian basis functions
   171 alpha electrons      171 beta electrons
       nuclear repulsion energy      6369.7961790737 Hartrees.
 NAtoms=   84 NActive=   84 NUniq=   84 SFac= 1.00D+00 NAtFMM=   60 NAOKFM=T Big=T
 Integral buffers will be    131072 words long.
 Raffenetti 2 integral format.
 Two-electron integral symmetry is turned on.
 Nuclear repulsion after empirical dispersion term =     6369.7031029009 Hartrees.
 Using the following non-standard input for PCM:
 --- end of non-standard input.
 ------------------------------------------------------------------------------
 Polarizable Continuum Model (PCM)
 =================================
 Model                : C-PCM.
 Atomic radii         : UFF (Universal Force Field).
 Polarization charges : Total charges.
 Charge compensation  : None.
 Solution method      : On-the-fly selection.
 Cavity type          : Scaled VdW (van der Waals Surface) (Alpha=1.100).
 Cavity algorithm     : GePol (No added spheres)
                        Default sphere list used, NSphG=   84.
                        Lebedev-Laikov grids with approx.  5.0 points / Ang**2.
                        Smoothing algorithm: York/Karplus (Gamma=1.0000).
                        Polarization charges: spherical gaussians, with
                                              point-specific exponents (IZeta= 3).
                        Self-potential: point-specific (ISelfS= 7).
                        Self-field    : sphere-specific E.n sum rule (ISelfD= 2).
 Solvent              : Water, Eps=  78.355300 Eps(inf)=   1.777849
 ------------------------------------------------------------------------------
 One-electron integrals computed using PRISM.
 NBasis=  1308 RedAO= T EigKep=  1.25D-06  NBF=  1308
 NBsUse=  1286 1.00D-06 EigRej=  9.42D-07 NBFU=  1286
 Initial guess from the checkpoint file:  "MaDA-exo-1-conf-1.chk"
 B after Tr=     0.000000    0.000000    0.000000
         Rot=    1.000000    0.000000   -0.000000    0.000000 Ang=   0.00 deg.
 Requested convergence on RMS density matrix=1.00D-08 within 128 cycles.
 Requested convergence on MAX density matrix=1.00D-06.
 Requested convergence on             energy=1.00D-06.
 No special actions if energy rises.
 Inv3:  Mode=1 IEnd=    80964075.
 Iteration    1 A*A^-1 deviation from unit magnitude is 4.66D-15 for    120.
 Iteration    1 A*A^-1 deviation from orthogonality  is 2.41D-15 for   4052   3769.
 Iteration    1 A^-1*A deviation from unit magnitude is 4.66D-15 for    120.
 Iteration    1 A^-1*A deviation from orthogonality  is 2.33D-15 for   2735    497.
 Error on total polarization charges =  0.02201
 SCF Done:  E(RwB97XD) =  -2184.77413471     A.U. after   15 cycles
            NFock= 15  Conv=0.78D-08     -V/T= 2.0041

 **********************************************************************

            Population analysis using the SCF density.

 **********************************************************************

 Orbital symmetries:
       Occupied  (A) (A) (A) (A) (A) (A) (A) (A) (A) (A) (A) (A)
                 (A) (A) (A) (A) (A) (A) (A) (A) (A) (A) (A) (A)
                 (A) (A) (A) (A) (A) (A) (A) (A) (A) (A) (A) (A)
                 (A) (A) (A) (A) (A) (A) (A) (A) (A) (A) (A) (A)
                 (A) (A) (A) (A) (A) (A) (A) (A) (A) (A) (A) (A)
                 (A) (A) (A) (A) (A) (A) (A) (A) (A) (A) (A) (A)
                 (A) (A) (A) (A) (A) (A) (A) (A) (A) (A) (A) (A)
                 (A) (A) (A) (A) (A) (A) (A) (A) (A) (A) (A) (A)
                 (A) (A) (A) (A) (A) (A) (A) (A) (A) (A) (A) (A)
                 (A) (A) (A) (A) (A) (A) (A) (A) (A) (A) (A) (A)
                 (A) (A) (A) (A) (A) (A) (A) (A) (A) (A) (A) (A)
                 (A) (A) (A) (A) (A) (A) (A) (A) (A) (A) (A) (A)
                 (A) (A) (A) (A) (A) (A) (A) (A) (A) (A) (A) (A)
                 (A) (A) (A) (A) (A) (A) (A) (A) (A) (A) (A) (A)
                 (A) (A) (A)
       Virtual   (A) (A) (A) (A) (A) (A) (A) (A) (A) (A) (A) (A)
                 (A) (A) (A) (A) (A) (A) (A) (A) (A) (A) (A) (A)
                 (A) (A) (A) (A) (A) (A) (A) (A) (A) (A) (A) (A)
                 (A) (A) (A) (A) (A) (A) (A) (A) (A) (A) (A) (A)
                 (A) (A) (A) (A) (A) (A) (A) (A) (A) (A) (A) (A)
                 (A) (A) (A) (A) (A) (A) (A) (A) (A) (A) (A) (A)
                 (A) (A) (A) (A) (A) (A) (A) (A) (A) (A) (A) (A)
                 (A) (A) (A) (A) (A) (A) (A) (A) (A) (A) (A) (A)
                 (A) (A) (A) (A) (A) (A) (A) (A) (A) (A) (A) (A)
                 (A) (A) (A) (A) (A) (A) (A) (A) (A) (A) (A) (A)
                 (A) (A) (A) (A) (A) (A) (A) (A) (A) (A) (A) (A)
                 (A) (A) (A) (A) (A) (A) (A) (A) (A) (A) (A) (A)
                 (A) (A) (A) (A) (A) (A) (A) (A) (A) (A) (A) (A)
                 (A) (A) (A) (A) (A) (A) (A) (A) (A) (A) (A) (A)
                 (A) (A) (A) (A) (A) (A) (A) (A) (A) (A) (A) (A)
                 (A) (A) (A) (A) (A) (A) (A) (A) (A) (A) (A) (A)
                 (A) (A) (A) (A) (A) (A) (A) (A) (A) (A) (A) (A)
                 (A) (A) (A) (A) (A) (A) (A) (A) (A) (A) (A) (A)
                 (A) (A) (A) (A) (A) (A) (A) (A) (A) (A) (A) (A)
                 (A) (A) (A) (A) (A) (A) (A) (A) (A) (A) (A) (A)
                 (A) (A) (A) (A) (A) (A) (A) (A) (A) (A) (A) (A)
                 (A) (A) (A) (A) (A) (A) (A) (A) (A) (A) (A) (A)
                 (A) (A) (A) (A) (A) (A) (A) (A) (A) (A) (A) (A)
                 (A) (A) (A) (A) (A) (A) (A) (A) (A) (A) (A) (A)
                 (A) (A) (A) (A) (A) (A) (A) (A) (A) (A) (A) (A)
                 (A) (A) (A) (A) (A) (A) (A) (A) (A) (A) (A) (A)
                 (A) (A) (A) (A) (A) (A) (A) (A) (A) (A) (A) (A)
                 (A) (A) (A) (A) (A) (A) (A) (A) (A) (A) (A) (A)
                 (A) (A) (A) (A) (A) (A) (A) (A) (A) (A) (A) (A)
                 (A) (A) (A) (A) (A) (A) (A) (A) (A) (A) (A) (A)
                 (A) (A) (A) (A) (A) (A) (A) (A) (A) (A) (A) (A)
                 (A) (A) (A) (A) (A) (A) (A) (A) (A) (A) (A) (A)
                 (A) (A) (A) (A) (A) (A) (A) (A) (A) (A) (A) (A)
                 (A) (A) (A) (A) (A) (A) (A) (A) (A) (A) (A) (A)
                 (A) (A) (A) (A) (A) (A) (A) (A) (A) (A) (A) (A)
                 (A) (A) (A) (A) (A) (A) (A) (A) (A) (A) (A) (A)
                 (A) (A) (A) (A) (A) (A) (A) (A) (A) (A) (A) (A)
                 (A) (A) (A) (A) (A) (A) (A) (A) (A) (A) (A) (A)
                 (A) (A) (A) (A) (A) (A) (A) (A) (A) (A) (A) (A)
                 (A) (A) (A) (A) (A) (A) (A) (A) (A) (A) (A) (A)
                 (A) (A) (A) (A) (A) (A) (A) (A) (A) (A) (A) (A)
                 (A) (A) (A) (A) (A) (A) (A) (A) (A) (A) (A) (A)
                 (A) (A) (A) (A) (A) (A) (A) (A) (A) (A) (A) (A)
                 (A) (A) (A) (A) (A) (A) (A) (A) (A) (A) (A) (A)
                 (A) (A) (A) (A) (A) (A) (A) (A) (A) (A) (A) (A)
                 (A) (A) (A) (A) (A) (A) (A) (A) (A) (A) (A) (A)
                 (A) (A) (A) (A) (A) (A) (A) (A) (A) (A) (A) (A)
                 (A) (A) (A) (A) (A) (A) (A) (A) (A) (A) (A) (A)
                 (A) (A) (A) (A) (A) (A) (A) (A) (A) (A) (A) (A)
                 (A) (A) (A) (A) (A) (A) (A) (A) (A) (A) (A) (A)
                 (A) (A) (A) (A) (A) (A) (A) (A) (A) (A) (A) (A)
                 (A) (A) (A) (A) (A) (A) (A) (A) (A) (A) (A) (A)
                 (A) (A) (A) (A) (A) (A) (A) (A) (A) (A) (A) (A)
                 (A) (A) (A) (A) (A) (A) (A) (A) (A) (A) (A) (A)
                 (A) (A) (A) (A) (A) (A) (A) (A) (A) (A) (A) (A)
                 (A) (A) (A) (A) (A) (A) (A) (A) (A) (A) (A) (A)
                 (A) (A) (A) (A) (A) (A) (A) (A) (A) (A) (A) (A)
                 (A) (A) (A) (A) (A) (A) (A) (A) (A) (A) (A) (A)
                 (A) (A) (A) (A) (A) (A) (A) (A) (A) (A) (A) (A)
                 (A) (A) (A) (A) (A) (A) (A) (A) (A) (A) (A) (A)
                 (A) (A) (A) (A) (A) (A) (A) (A) (A) (A) (A) (A)
                 (A) (A) (A) (A) (A) (A) (A) (A) (A) (A) (A) (A)
                 (A) (A) (A) (A) (A) (A) (A) (A) (A) (A) (A) (A)
                 (A) (A) (A) (A) (A) (A) (A) (A) (A) (A) (A) (A)
                 (A) (A) (A) (A) (A) (A) (A) (A) (A) (A) (A) (A)
                 (A) (A) (A) (A) (A) (A) (A) (A) (A) (A) (A) (A)
                 (A) (A) (A) (A) (A) (A) (A) (A) (A) (A) (A) (A)
                 (A) (A) (A) (A) (A) (A) (A) (A) (A) (A) (A) (A)
                 (A) (A) (A) (A) (A) (A) (A) (A) (A) (A) (A) (A)
                 (A) (A) (A) (A) (A) (A) (A) (A) (A) (A) (A) (A)
                 (A) (A) (A) (A) (A) (A) (A) (A) (A) (A) (A) (A)
                 (A) (A) (A) (A) (A) (A) (A) (A) (A) (A) (A) (A)
                 (A) (A) (A) (A) (A) (A) (A) (A) (A) (A) (A) (A)
                 (A) (A) (A) (A) (A) (A) (A) (A) (A) (A) (A) (A)
                 (A) (A) (A) (A) (A) (A) (A) (A) (A) (A) (A) (A)
                 (A) (A) (A) (A) (A) (A) (A) (A) (A) (A) (A) (A)
                 (A) (A) (A) (A) (A) (A) (A) (A) (A) (A) (A) (A)
                 (A) (A) (A) (A) (A) (A) (A) (A) (A) (A) (A) (A)
                 (A) (A) (A) (A) (A) (A) (A) (A) (A) (A) (A) (A)
                 (A) (A) (A) (A) (A) (A) (A) (A) (A) (A) (A) (A)
                 (A) (A) (A) (A) (A) (A) (A) (A) (A) (A) (A) (A)
                 (A) (A) (A) (A) (A) (A) (A) (A) (A) (A) (A) (A)
                 (A) (A) (A) (A) (A) (A) (A) (A) (A) (A) (A) (A)
                 (A) (A) (A) (A) (A) (A) (A) (A) (A) (A) (A) (A)
                 (A) (A) (A) (A) (A) (A) (A) (A) (A) (A) (A) (A)
                 (A) (A) (A) (A) (A) (A) (A) (A) (A) (A) (A) (A)
                 (A) (A) (A) (A) (A) (A) (A) (A) (A) (A) (A) (A)
                 (A) (A) (A) (A) (A) (A) (A) (A) (A) (A) (A) (A)
                 (A) (A) (A) (A) (A) (A) (A) (A) (A) (A) (A) (A)
                 (A) (A) (A) (A) (A) (A) (A) (A) (A) (A) (A) (A)
                 (A) (A) (A) (A) (A) (A) (A) (A) (A) (A) (A) (A)
                 (A) (A) (A) (A) (A) (A) (A) (A) (A) (A) (A) (A)
                 (A) (A) (A) (A) (A) (A) (A) (A) (A) (A) (A)
 The electronic state is 1-A.
 Alpha  occ. eigenvalues --  -19.32326 -19.29370 -19.28868 -19.28819 -19.28695
 Alpha  occ. eigenvalues --  -19.28664 -19.28605 -19.28086 -19.24043 -10.38488
 Alpha  occ. eigenvalues --  -10.36918 -10.36830 -10.36486 -10.36189 -10.35982
 Alpha  occ. eigenvalues --  -10.35893 -10.35888 -10.35876 -10.35710 -10.31754
 Alpha  occ. eigenvalues --  -10.31283 -10.30567 -10.30525 -10.30371 -10.30243
 Alpha  occ. eigenvalues --  -10.30212 -10.30170 -10.29980 -10.29818 -10.29787
 Alpha  occ. eigenvalues --  -10.29761 -10.29726 -10.29680 -10.29671 -10.29653
 Alpha  occ. eigenvalues --  -10.29457 -10.29211 -10.29196 -10.28993 -10.28862
 Alpha  occ. eigenvalues --  -10.28823 -10.28804 -10.28659 -10.28589 -10.28562
 Alpha  occ. eigenvalues --  -10.28106 -10.28012 -10.27728  -1.22979  -1.18511
 Alpha  occ. eigenvalues --   -1.17975  -1.17886  -1.17855  -1.17738  -1.17513
 Alpha  occ. eigenvalues --   -1.17209  -1.15169  -0.97903  -0.97252  -0.96947
 Alpha  occ. eigenvalues --   -0.96737  -0.95411  -0.93075  -0.91934  -0.90080
 Alpha  occ. eigenvalues --   -0.89428  -0.88958  -0.86890  -0.86103  -0.85570
 Alpha  occ. eigenvalues --   -0.85074  -0.84676  -0.83167  -0.82525  -0.81711
 Alpha  occ. eigenvalues --   -0.80017  -0.79574  -0.76290  -0.75445  -0.75079
 Alpha  occ. eigenvalues --   -0.73946  -0.73558  -0.73205  -0.72685  -0.71871
 Alpha  occ. eigenvalues --   -0.71042  -0.70444  -0.69508  -0.69013  -0.67098
 Alpha  occ. eigenvalues --   -0.66325  -0.66254  -0.64590  -0.64078  -0.62721
 Alpha  occ. eigenvalues --   -0.61972  -0.61503  -0.60490  -0.60284  -0.59958
 Alpha  occ. eigenvalues --   -0.59736  -0.59354  -0.58699  -0.58251  -0.57706
 Alpha  occ. eigenvalues --   -0.57264  -0.56509  -0.56386  -0.56015  -0.55750
 Alpha  occ. eigenvalues --   -0.55164  -0.55088  -0.54009  -0.53943  -0.53182
 Alpha  occ. eigenvalues --   -0.52841  -0.52684  -0.52552  -0.52458  -0.52013
 Alpha  occ. eigenvalues --   -0.51702  -0.51581  -0.51102  -0.51086  -0.50902
 Alpha  occ. eigenvalues --   -0.50620  -0.50340  -0.50192  -0.50014  -0.49478
 Alpha  occ. eigenvalues --   -0.49210  -0.49001  -0.48751  -0.48467  -0.47823
 Alpha  occ. eigenvalues --   -0.47621  -0.47489  -0.47295  -0.46995  -0.46638
 Alpha  occ. eigenvalues --   -0.46449  -0.46096  -0.45936  -0.45862  -0.45256
 Alpha  occ. eigenvalues --   -0.44871  -0.44715  -0.44156  -0.43952  -0.43756
 Alpha  occ. eigenvalues --   -0.43524  -0.43489  -0.42574  -0.42345  -0.42119
 Alpha  occ. eigenvalues --   -0.41321  -0.40499  -0.40272  -0.40168  -0.37583
 Alpha  occ. eigenvalues --   -0.34644  -0.33685  -0.33057  -0.32963  -0.32328
 Alpha  occ. eigenvalues --   -0.32178  -0.31728  -0.30783  -0.30293  -0.29554
 Alpha  occ. eigenvalues --   -0.27636
 Alpha virt. eigenvalues --    0.00590   0.00895   0.03737   0.04207   0.04368
 Alpha virt. eigenvalues --    0.04595   0.04820   0.05034   0.05115   0.05183
 Alpha virt. eigenvalues --    0.05456   0.05673   0.05828   0.05979   0.06063
 Alpha virt. eigenvalues --    0.06583   0.06611   0.06798   0.06987   0.07100
 Alpha virt. eigenvalues --    0.07303   0.07496   0.07682   0.07929   0.08001
 Alpha virt. eigenvalues --    0.08335   0.08527   0.08771   0.08906   0.09218
 Alpha virt. eigenvalues --    0.09406   0.09603   0.09863   0.10144   0.10275
 Alpha virt. eigenvalues --    0.10318   0.10860   0.11098   0.11396   0.11500
 Alpha virt. eigenvalues --    0.11735   0.11835   0.12210   0.12296   0.12504
 Alpha virt. eigenvalues --    0.12875   0.13077   0.13211   0.13440   0.13757
 Alpha virt. eigenvalues --    0.13858   0.13978   0.14474   0.14536   0.14856
 Alpha virt. eigenvalues --    0.15169   0.15254   0.15392   0.15454   0.15599
 Alpha virt. eigenvalues --    0.15795   0.15908   0.16131   0.16349   0.16488
 Alpha virt. eigenvalues --    0.16673   0.16812   0.16935   0.17095   0.17315
 Alpha virt. eigenvalues --    0.17417   0.17581   0.17828   0.17985   0.18039
 Alpha virt. eigenvalues --    0.18095   0.18290   0.18449   0.18605   0.18738
 Alpha virt. eigenvalues --    0.18866   0.19126   0.19197   0.19353   0.19468
 Alpha virt. eigenvalues --    0.19614   0.19736   0.19889   0.20091   0.20255
 Alpha virt. eigenvalues --    0.20495   0.20713   0.20787   0.20866   0.21034
 Alpha virt. eigenvalues --    0.21110   0.21293   0.21459   0.21586   0.21838
 Alpha virt. eigenvalues --    0.21889   0.22119   0.22259   0.22317   0.22501
 Alpha virt. eigenvalues --    0.22549   0.22832   0.22955   0.23121   0.23203
 Alpha virt. eigenvalues --    0.23352   0.23437   0.23562   0.23592   0.23887
 Alpha virt. eigenvalues --    0.23962   0.24148   0.24324   0.24580   0.24698
 Alpha virt. eigenvalues --    0.24898   0.25028   0.25126   0.25278   0.25392
 Alpha virt. eigenvalues --    0.25552   0.25757   0.26080   0.26110   0.26207
 Alpha virt. eigenvalues --    0.26432   0.26543   0.26756   0.26851   0.27039
 Alpha virt. eigenvalues --    0.27174   0.27349   0.27500   0.27660   0.27781
 Alpha virt. eigenvalues --    0.27960   0.28209   0.28359   0.28443   0.28529
 Alpha virt. eigenvalues --    0.28680   0.28941   0.29085   0.29315   0.29435
 Alpha virt. eigenvalues --    0.29521   0.29611   0.29781   0.29904   0.30083
 Alpha virt. eigenvalues --    0.30219   0.30252   0.30556   0.30696   0.30854
 Alpha virt. eigenvalues --    0.30971   0.30995   0.31153   0.31424   0.31489
 Alpha virt. eigenvalues --    0.31753   0.32031   0.32122   0.32298   0.32342
 Alpha virt. eigenvalues --    0.32587   0.32708   0.32985   0.33161   0.33355
 Alpha virt. eigenvalues --    0.33413   0.33641   0.33943   0.34087   0.34216
 Alpha virt. eigenvalues --    0.34375   0.34535   0.34586   0.34720   0.34889
 Alpha virt. eigenvalues --    0.35085   0.35186   0.35319   0.35400   0.35591
 Alpha virt. eigenvalues --    0.35756   0.35853   0.36077   0.36229   0.36266
 Alpha virt. eigenvalues --    0.36363   0.36668   0.36824   0.36944   0.37071
 Alpha virt. eigenvalues --    0.37142   0.37224   0.37519   0.37718   0.37916
 Alpha virt. eigenvalues --    0.37997   0.38077   0.38356   0.38524   0.38534
 Alpha virt. eigenvalues --    0.38685   0.38777   0.38928   0.39236   0.39300
 Alpha virt. eigenvalues --    0.39512   0.39647   0.39801   0.39908   0.39967
 Alpha virt. eigenvalues --    0.40125   0.40283   0.40508   0.40799   0.41003
 Alpha virt. eigenvalues --    0.41180   0.41248   0.41473   0.41672   0.41851
 Alpha virt. eigenvalues --    0.42056   0.42215   0.42336   0.42579   0.42762
 Alpha virt. eigenvalues --    0.42919   0.43003   0.43292   0.43634   0.43752
 Alpha virt. eigenvalues --    0.43843   0.43946   0.44187   0.44423   0.44575
 Alpha virt. eigenvalues --    0.44817   0.44981   0.45095   0.45528   0.45693
 Alpha virt. eigenvalues --    0.45792   0.45987   0.46159   0.46497   0.46639
 Alpha virt. eigenvalues --    0.46961   0.47194   0.47476   0.47718   0.47784
 Alpha virt. eigenvalues --    0.48039   0.48385   0.48733   0.48864   0.49162
 Alpha virt. eigenvalues --    0.49305   0.49486   0.49793   0.50205   0.50358
 Alpha virt. eigenvalues --    0.50556   0.50798   0.51038   0.51344   0.51706
 Alpha virt. eigenvalues --    0.51843   0.52109   0.52427   0.52638   0.52990
 Alpha virt. eigenvalues --    0.53296   0.53427   0.54145   0.54531   0.54539
 Alpha virt. eigenvalues --    0.54868   0.55041   0.55316   0.55895   0.56403
 Alpha virt. eigenvalues --    0.56657   0.56711   0.57103   0.57752   0.57935
 Alpha virt. eigenvalues --    0.58339   0.58472   0.58836   0.59304   0.59530
 Alpha virt. eigenvalues --    0.60314   0.60623   0.60867   0.61033   0.61819
 Alpha virt. eigenvalues --    0.62494   0.62840   0.63141   0.63705   0.63924
 Alpha virt. eigenvalues --    0.64081   0.64432   0.64682   0.65129   0.65644
 Alpha virt. eigenvalues --    0.65797   0.66004   0.66251   0.66542   0.66854
 Alpha virt. eigenvalues --    0.66917   0.67389   0.67545   0.67786   0.68034
 Alpha virt. eigenvalues --    0.68371   0.68602   0.68700   0.69009   0.69088
 Alpha virt. eigenvalues --    0.69468   0.70162   0.70430   0.70478   0.70708
 Alpha virt. eigenvalues --    0.70731   0.71202   0.71244   0.71692   0.71814
 Alpha virt. eigenvalues --    0.72283   0.72662   0.72739   0.72853   0.73200
 Alpha virt. eigenvalues --    0.73564   0.73757   0.74129   0.74429   0.74993
 Alpha virt. eigenvalues --    0.75145   0.75381   0.75679   0.75817   0.75926
 Alpha virt. eigenvalues --    0.76055   0.76371   0.77153   0.77290   0.77591
 Alpha virt. eigenvalues --    0.77768   0.77826   0.78526   0.78571   0.78814
 Alpha virt. eigenvalues --    0.78968   0.79212   0.79730   0.80012   0.80036
 Alpha virt. eigenvalues --    0.80261   0.80552   0.80882   0.81041   0.81360
 Alpha virt. eigenvalues --    0.81578   0.81745   0.82077   0.82183   0.82596
 Alpha virt. eigenvalues --    0.83051   0.83095   0.83393   0.83567   0.83833
 Alpha virt. eigenvalues --    0.84209   0.84533   0.84801   0.85045   0.85185
 Alpha virt. eigenvalues --    0.85578   0.85687   0.86044   0.86161   0.86608
 Alpha virt. eigenvalues --    0.87013   0.87078   0.87149   0.87428   0.87720
 Alpha virt. eigenvalues --    0.87970   0.88247   0.88531   0.88780   0.89225
 Alpha virt. eigenvalues --    0.89342   0.89582   0.89920   0.90098   0.90290
 Alpha virt. eigenvalues --    0.90359   0.90729   0.91262   0.91627   0.91831
 Alpha virt. eigenvalues --    0.92090   0.92399   0.92706   0.93074   0.93404
 Alpha virt. eigenvalues --    0.93469   0.93786   0.94176   0.94505   0.94801
 Alpha virt. eigenvalues --    0.95147   0.95405   0.96287   0.96746   0.97260
 Alpha virt. eigenvalues --    0.97458   0.97846   0.98000   0.98422   0.98630
 Alpha virt. eigenvalues --    0.98808   0.99141   0.99421   1.00086   1.00260
 Alpha virt. eigenvalues --    1.00494   1.00584   1.01005   1.01399   1.01972
 Alpha virt. eigenvalues --    1.02169   1.02452   1.02794   1.03115   1.03283
 Alpha virt. eigenvalues --    1.03901   1.04060   1.04322   1.04655   1.05738
 Alpha virt. eigenvalues --    1.06281   1.06469   1.06627   1.07229   1.07241
 Alpha virt. eigenvalues --    1.07905   1.08007   1.08675   1.09041   1.09734
 Alpha virt. eigenvalues --    1.10286   1.10516   1.10739   1.10999   1.11141
 Alpha virt. eigenvalues --    1.11647   1.12014   1.12712   1.12947   1.13108
 Alpha virt. eigenvalues --    1.13617   1.13867   1.14301   1.14452   1.14696
 Alpha virt. eigenvalues --    1.15027   1.15591   1.15720   1.15979   1.16162
 Alpha virt. eigenvalues --    1.16750   1.16959   1.17037   1.17514   1.17735
 Alpha virt. eigenvalues --    1.18137   1.18444   1.18812   1.19030   1.19558
 Alpha virt. eigenvalues --    1.19810   1.20538   1.20587   1.21057   1.21483
 Alpha virt. eigenvalues --    1.21631   1.22921   1.23267   1.23538   1.24159
 Alpha virt. eigenvalues --    1.24434   1.24774   1.25201   1.25788   1.25982
 Alpha virt. eigenvalues --    1.26426   1.27241   1.27793   1.28283   1.28616
 Alpha virt. eigenvalues --    1.28915   1.29551   1.30186   1.30552   1.31322
 Alpha virt. eigenvalues --    1.31684   1.32082   1.32252   1.32923   1.33260
 Alpha virt. eigenvalues --    1.33547   1.33927   1.34248   1.34652   1.35447
 Alpha virt. eigenvalues --    1.35855   1.36434   1.36814   1.36913   1.37098
 Alpha virt. eigenvalues --    1.38039   1.38444   1.39232   1.39673   1.39989
 Alpha virt. eigenvalues --    1.40470   1.40896   1.41738   1.42205   1.42898
 Alpha virt. eigenvalues --    1.43335   1.43640   1.44225   1.45057   1.45274
 Alpha virt. eigenvalues --    1.45396   1.46701   1.47325   1.47848   1.48306
 Alpha virt. eigenvalues --    1.48609   1.48973   1.49050   1.49810   1.50169
 Alpha virt. eigenvalues --    1.50422   1.51090   1.51418   1.51796   1.52264
 Alpha virt. eigenvalues --    1.52921   1.53335   1.53766   1.54265   1.54451
 Alpha virt. eigenvalues --    1.54943   1.55386   1.55681   1.56336   1.56720
 Alpha virt. eigenvalues --    1.57175   1.57568   1.57831   1.58390   1.58563
 Alpha virt. eigenvalues --    1.59460   1.60148   1.60277   1.60745   1.60851
 Alpha virt. eigenvalues --    1.61551   1.62069   1.62373   1.62993   1.63277
 Alpha virt. eigenvalues --    1.63758   1.63894   1.64374   1.64579   1.65025
 Alpha virt. eigenvalues --    1.65209   1.65679   1.66466   1.66759   1.66836
 Alpha virt. eigenvalues --    1.67213   1.67662   1.67992   1.68332   1.68608
 Alpha virt. eigenvalues --    1.68738   1.68862   1.69001   1.69376   1.69702
 Alpha virt. eigenvalues --    1.70057   1.70158   1.70411   1.70794   1.70981
 Alpha virt. eigenvalues --    1.71574   1.71977   1.72135   1.72765   1.73238
 Alpha virt. eigenvalues --    1.73291   1.73406   1.73768   1.74588   1.74843
 Alpha virt. eigenvalues --    1.75236   1.75723   1.76048   1.76214   1.76915
 Alpha virt. eigenvalues --    1.77083   1.77439   1.77940   1.78297   1.78498
 Alpha virt. eigenvalues --    1.78724   1.79700   1.79856   1.80778   1.80853
 Alpha virt. eigenvalues --    1.81426   1.82454   1.82715   1.83036   1.83731
 Alpha virt. eigenvalues --    1.84037   1.84513   1.85010   1.85816   1.86091
 Alpha virt. eigenvalues --    1.86195   1.86801   1.87165   1.87902   1.88377
 Alpha virt. eigenvalues --    1.88765   1.88940   1.89324   1.90028   1.90138
 Alpha virt. eigenvalues --    1.90609   1.90741   1.91380   1.91992   1.92417
 Alpha virt. eigenvalues --    1.92746   1.93208   1.93524   1.93944   1.94048
 Alpha virt. eigenvalues --    1.94779   1.95111   1.95286   1.95963   1.96506
 Alpha virt. eigenvalues --    1.96663   1.97074   1.97766   1.98089   1.98188
 Alpha virt. eigenvalues --    1.99088   1.99420   1.99658   1.99822   2.00156
 Alpha virt. eigenvalues --    2.00914   2.01586   2.01906   2.02061   2.02347
 Alpha virt. eigenvalues --    2.02790   2.03622   2.03712   2.04217   2.04756
 Alpha virt. eigenvalues --    2.05253   2.05598   2.05995   2.06182   2.06829
 Alpha virt. eigenvalues --    2.06926   2.07583   2.08154   2.08431   2.08863
 Alpha virt. eigenvalues --    2.08934   2.09126   2.09405   2.09881   2.10079
 Alpha virt. eigenvalues --    2.10791   2.11008   2.11983   2.12140   2.12441
 Alpha virt. eigenvalues --    2.12633   2.13211   2.13636   2.13730   2.14117
 Alpha virt. eigenvalues --    2.14895   2.15289   2.15735   2.16285   2.16398
 Alpha virt. eigenvalues --    2.17141   2.18029   2.18270   2.18625   2.19136
 Alpha virt. eigenvalues --    2.19685   2.19961   2.20359   2.20647   2.21007
 Alpha virt. eigenvalues --    2.21078   2.21678   2.22236   2.22898   2.23211
 Alpha virt. eigenvalues --    2.24122   2.24284   2.24674   2.25266   2.25506
 Alpha virt. eigenvalues --    2.26373   2.27165   2.27690   2.28480   2.28787
 Alpha virt. eigenvalues --    2.29669   2.29980   2.30440   2.31392   2.31916
 Alpha virt. eigenvalues --    2.32728   2.33171   2.34199   2.34760   2.35124
 Alpha virt. eigenvalues --    2.35933   2.37315   2.38025   2.38908   2.39200
 Alpha virt. eigenvalues --    2.39542   2.39851   2.40371   2.41677   2.41835
 Alpha virt. eigenvalues --    2.41964   2.42833   2.43230   2.44110   2.45234
 Alpha virt. eigenvalues --    2.45484   2.45872   2.46481   2.47456   2.48038
 Alpha virt. eigenvalues --    2.48774   2.49540   2.50137   2.50520   2.51540
 Alpha virt. eigenvalues --    2.52792   2.53410   2.53823   2.54868   2.55404
 Alpha virt. eigenvalues --    2.55882   2.57046   2.57919   2.58273   2.58746
 Alpha virt. eigenvalues --    2.58971   2.59139   2.59998   2.61414   2.62474
 Alpha virt. eigenvalues --    2.62685   2.63115   2.63699   2.64553   2.64987
 Alpha virt. eigenvalues --    2.66529   2.67080   2.67601   2.68202   2.68433
 Alpha virt. eigenvalues --    2.69185   2.69953   2.70544   2.71343   2.72472
 Alpha virt. eigenvalues --    2.72802   2.73413   2.73861   2.74695   2.75075
 Alpha virt. eigenvalues --    2.75654   2.76033   2.76483   2.77703   2.78126
 Alpha virt. eigenvalues --    2.78577   2.78827   2.79055   2.80099   2.80845
 Alpha virt. eigenvalues --    2.80995   2.81400   2.82215   2.82577   2.82765
 Alpha virt. eigenvalues --    2.83278   2.84007   2.84529   2.84980   2.85797
 Alpha virt. eigenvalues --    2.86121   2.86483   2.86590   2.87617   2.87753
 Alpha virt. eigenvalues --    2.88146   2.88545   2.89120   2.89381   2.90681
 Alpha virt. eigenvalues --    2.91286   2.91664   2.91921   2.92615   2.92833
 Alpha virt. eigenvalues --    2.92989   2.93527   2.94193   2.94419   2.95057
 Alpha virt. eigenvalues --    2.95367   2.95598   2.96299   2.96831   2.97530
 Alpha virt. eigenvalues --    2.98724   2.99287   2.99585   2.99755   3.00252
 Alpha virt. eigenvalues --    3.00813   3.01055   3.01349   3.02414   3.03050
 Alpha virt. eigenvalues --    3.03377   3.04628   3.04805   3.05326   3.05990
 Alpha virt. eigenvalues --    3.06836   3.07236   3.08021   3.09225   3.09584
 Alpha virt. eigenvalues --    3.10890   3.11566   3.12713   3.13579   3.13771
 Alpha virt. eigenvalues --    3.14016   3.15295   3.15568   3.16141   3.16742
 Alpha virt. eigenvalues --    3.17004   3.17287   3.17322   3.17538   3.17818
 Alpha virt. eigenvalues --    3.18528   3.18839   3.19002   3.19417   3.19674
 Alpha virt. eigenvalues --    3.19853   3.20310   3.20702   3.21600   3.22016
 Alpha virt. eigenvalues --    3.22395   3.22939   3.23837   3.24208   3.24473
 Alpha virt. eigenvalues --    3.24986   3.25392   3.26137   3.26794   3.26983
 Alpha virt. eigenvalues --    3.27535   3.27815   3.28402   3.28758   3.28791
 Alpha virt. eigenvalues --    3.29232   3.29713   3.30422   3.30835   3.31609
 Alpha virt. eigenvalues --    3.32207   3.32706   3.32984   3.33319   3.34177
 Alpha virt. eigenvalues --    3.34855   3.34947   3.35245   3.36163   3.36923
 Alpha virt. eigenvalues --    3.37229   3.38733   3.40159   3.40438   3.40882
 Alpha virt. eigenvalues --    3.43733   3.45140   3.46204   3.46958   3.47558
 Alpha virt. eigenvalues --    3.47753   3.49322   3.53030   3.53927   3.54550
 Alpha virt. eigenvalues --    3.54614   3.55250   3.55778   3.56581   3.57343
 Alpha virt. eigenvalues --    3.57947   3.58404   3.60445   3.60927   3.61990
 Alpha virt. eigenvalues --    3.62758   3.65153   3.66034   3.67121   3.67615
 Alpha virt. eigenvalues --    3.69382   3.70846   3.72700   3.73108   3.73556
 Alpha virt. eigenvalues --    3.74463   3.75567   3.76500   3.77461   3.78917
 Alpha virt. eigenvalues --    3.83750   3.84528   3.85442   3.86876   3.87618
 Alpha virt. eigenvalues --    3.88823   3.88951   3.91445   3.91766   3.92338
 Alpha virt. eigenvalues --    3.94061   3.94674   3.96205   3.96339   3.96991
 Alpha virt. eigenvalues --    3.98624   3.99044   3.99688   4.01708   4.02633
 Alpha virt. eigenvalues --    4.03250   4.04236   4.05159   4.06738   4.08108
 Alpha virt. eigenvalues --    4.14783   4.15179   4.15648   4.19453   4.20034
 Alpha virt. eigenvalues --    4.20947   4.22076   4.22533   4.23277   4.26439
 Alpha virt. eigenvalues --    4.28016   4.28498   4.30257   4.31195   4.31457
 Alpha virt. eigenvalues --    4.32030   4.33196   4.34419   4.35081   4.35743
 Alpha virt. eigenvalues --    4.37870   4.39116   4.42137   4.44070   4.45416
 Alpha virt. eigenvalues --    4.51364   4.51828   4.56116   4.59318   4.63736
 Alpha virt. eigenvalues --    4.70423   4.92981   4.95745   4.95948   4.97530
 Alpha virt. eigenvalues --    5.11394   5.11609   5.16136   5.19572   5.21153
 Alpha virt. eigenvalues --    5.23674   5.27415   5.32582   5.37385   5.44711
 Alpha virt. eigenvalues --    5.54673   5.55187   5.62364   5.63653   5.64018
 Alpha virt. eigenvalues --    5.65340   5.65693   5.69492   5.84944   5.86283
 Alpha virt. eigenvalues --    5.86409   5.90011   5.90506   5.92344   5.96237
 Alpha virt. eigenvalues --    5.97133   6.01501  23.73777  23.73860  23.77810
 Alpha virt. eigenvalues --   23.83995  23.88294  23.91014  23.97920  23.99827
 Alpha virt. eigenvalues --   24.04034  24.05227  24.05381  24.06233  24.06712
 Alpha virt. eigenvalues --   24.08818  24.08974  24.09487  24.10334  24.10601
 Alpha virt. eigenvalues --   24.11873  24.12571  24.12921  24.14156  24.14829
 Alpha virt. eigenvalues --   24.17342  24.19181  24.20300  24.21493  24.22760
 Alpha virt. eigenvalues --   24.22931  24.23570  24.23873  24.25064  24.29792
 Alpha virt. eigenvalues --   24.31094  24.31679  24.31893  24.34049  24.39532
 Alpha virt. eigenvalues --   24.39720  50.06607  50.07080  50.10452  50.10720
 Alpha virt. eigenvalues --   50.12177  50.13191  50.14384  50.15803  50.21635
          Condensed to atoms (all electrons):
 Mulliken charges:
               1
     1  C   -0.087045
     2  C   -0.670517
     3  C   -0.212320
     4  C   -0.181654
     5  C    0.553475
     6  C   -0.360979
     7  C    0.023502
     8  C    0.088966
     9  O   -0.221167
    10  O   -0.276215
    11  C   -0.075144
    12  C    0.013639
    13  O   -0.237372
    14  C   -0.205762
    15  C   -0.450783
    16  C   -0.590204
    17  C    0.704171
    18  C   -0.080020
    19  O   -0.050259
    20  O   -0.187415
    21  C   -1.482035
    22  C    0.715432
    23  C    0.236122
    24  C   -0.857596
    25  C   -0.617678
    26  O    0.060926
    27  C   -0.110486
    28  C   -0.231894
    29  C   -0.504794
    30  C    0.622251
    31  C    0.326169
    32  C   -0.433454
    33  C    0.026695
    34  C   -0.660674
    35  C   -0.502289
    36  C   -0.399123
    37  C   -0.005616
    38  C   -0.448711
    39  C   -0.639850
    40  O   -0.157881
    41  C   -0.330583
    42  C   -0.038879
    43  C   -0.210418
    44  C   -0.562739
    45  C    0.525089
    46  C   -0.374219
    47  O   -0.259424
    48  O   -0.231954
    49  H    0.256190
    50  H    0.254378
    51  H    0.206408
    52  H    0.344840
    53  H    0.197197
    54  H    0.322338
    55  H    0.316337
    56  H    0.259000
    57  H    0.247670
    58  H    0.320378
    59  H    0.330570
    60  H    0.267898
    61  H    0.212374
    62  H    0.185893
    63  H    0.067484
    64  H    0.199442
    65  H    0.213475
    66  H    0.148215
    67  H    0.203765
    68  H    0.227141
    69  H    0.255388
    70  H    0.275897
    71  H    0.255608
    72  H    0.248472
    73  H    0.232725
    74  H    0.237014
    75  H    0.172442
    76  H    0.200966
    77  H    0.203317
    78  H    0.261050
    79  H    0.351279
    80  H    0.310691
    81  H    0.234970
    82  H    0.241407
    83  H    0.314096
    84  H    0.474398
 Sum of Mulliken charges =  -0.00000
 Mulliken charges with hydrogens summed into heavy atoms:
               1
     1  C    0.169145
     2  C   -0.670517
     3  C    0.042058
     4  C    0.024754
     5  C    0.553475
     6  C   -0.360979
     7  C    0.368342
     8  C    0.286163
     9  O    0.101171
    10  O    0.040122
    11  C   -0.075144
    12  C    0.013639
    13  O   -0.237372
    14  C    0.053238
    15  C   -0.203113
    16  C   -0.590204
    17  C    0.704171
    18  C   -0.080020
    19  O    0.270119
    20  O    0.143155
    21  C   -1.001764
    22  C    0.901325
    23  C    0.236122
    24  C   -0.377195
    25  C   -0.038557
    26  O    0.060926
    27  C   -0.110486
    28  C    0.023495
    29  C   -0.228896
    30  C    0.622251
    31  C    0.326169
    32  C   -0.177846
    33  C    0.275166
    34  C   -0.660674
    35  C   -0.032549
    36  C    0.177603
    37  C   -0.005616
    38  C   -0.187661
    39  C   -0.288571
    40  O    0.152810
    41  C   -0.330583
    42  C   -0.038879
    43  C   -0.210418
    44  C   -0.327769
    45  C    0.525089
    46  C   -0.132812
    47  O    0.054672
    48  O    0.242443
 Electronic spatial extent (au):  <R**2>=          29815.2775
 Charge=              0.0000 electrons
 Dipole moment (field-independent basis, Debye):
    X=             -5.4615    Y=              3.6444    Z=              0.9967  Tot=              6.6410
 Quadrupole moment (field-independent basis, Debye-Ang):
   XX=           -248.5167   YY=           -268.7015   ZZ=           -254.6877
   XY=            -28.9103   XZ=            -35.0042   YZ=              1.5354
 Traceless Quadrupole moment (field-independent basis, Debye-Ang):
   XX=              8.7853   YY=            -11.3995   ZZ=              2.6143
   XY=            -28.9103   XZ=            -35.0042   YZ=              1.5354
 Octapole moment (field-independent basis, Debye-Ang**2):
  XXX=           -249.1682  YYY=             60.2046  ZZZ=             85.2324  XYY=             52.2996
  XXY=             94.0572  XXZ=             54.3784  XZZ=            -78.6782  YZZ=             50.8433
  YYZ=            -38.0590  XYZ=            -27.6545
 Hexadecapole moment (field-independent basis, Debye-Ang**3):
 XXXX=         -23152.7888 YYYY=          -5863.7858 ZZZZ=          -4215.4709 XXXY=          -1937.7245
 XXXZ=           -207.2177 YYYX=             86.4327 YYYZ=            -64.5173 ZZZX=           -287.1443
 ZZZY=             65.0492 XXYY=          -5839.3803 XXZZ=          -5778.9818 YYZZ=          -1683.9166
 XXYZ=             74.0250 YYXZ=           -268.9383 ZZXY=           -113.1293
 N-N= 6.369703102901D+03 E-N=-1.784063843068D+04  KE= 2.175896367090D+03
 1\1\GINC-NODE2\SP\RwB97XD\6-311++G(d,p)\C39H36O9\ZHOUJUNSU\13-Jul-2023
 \0\\# wb97xd/6-311++G(d,p) integral(ultrafinegrid) guess=read geom=che
 ck scrf=(cpcm,read,solvent=water)\\Candidate Structure: MaDA-exo-1, Co
 nformer: 1, Single-point energies calculated with wB97X-D/6-311++G(d,p
 )\\0,1\C,0,9.5911788064,-2.5214601425,-9.1182020725\C,0,10.818567439,-
 1.96555537,-8.7585397593\C,0,10.861053441,-0.841683943,-7.9369572462\C
 ,0,9.6656792744,-0.2899956683,-7.47995536\C,0,8.422012355,-0.823290164
 2,-7.8111338933\C,0,8.4111895517,-1.9498697945,-8.6504116497\C,0,7.110
 7099941,-0.2190089377,-7.348197172\C,0,7.2079176617,0.5013704725,-5.99
 78019512\O,0,7.1948883837,-2.4608098705,-8.9899596919\O,0,11.936233058
 9,-2.5701641668,-9.2447749454\C,0,7.765320973,-0.4104697366,-4.9060904
 323\C,0,8.5237563613,0.1379258843,-3.743124678\O,0,7.4796496464,-1.600
 3010934,-4.9276679715\C,0,8.3865016574,-0.5647482443,-2.5380244409\C,0
 ,8.9334714044,-0.1083106717,-1.3562255978\C,0,9.7065556455,1.058335653
 1,-1.3679380489\C,0,9.9357210201,1.7584951783,-2.555674937\C,0,9.29713
 27633,1.3130757792,-3.7220306192\O,0,9.4950913966,2.0018045896,-4.8782
 74521\O,0,10.2865578135,1.5366026375,-0.2400400614\C,0,10.9043398957,2
 .9249231653,-2.6096245226\C,0,10.2481509483,4.2395981139,-2.9492231757
 \C,0,10.469875482,5.0317647443,-4.0091681271\C,0,9.7060014971,6.321968
 0632,-4.1677523546\C,0,11.4616899347,4.755645628,-5.1116905208\O,0,7.3
 750730563,5.7173528294,-1.2938653948\C,0,7.2128348886,4.3650940534,-1.
 0778299412\C,0,7.67726824,4.004525083,0.1449457102\C,0,8.3073114323,7.
 5518443026,0.0147940596\C,0,7.9617985244,6.2233048209,-0.1775523828\C,
 0,8.1750524415,5.2067893826,0.7623695654\C,0,8.7825691472,5.5426968005
 ,1.976861464\C,0,9.1439573276,6.8621380749,2.2030568212\C,0,8.90789723
 2,7.8575222808,1.2332741149\C,0,6.5686567604,0.7519947864,-8.408136121
 3\C,0,4.4963824958,2.1105919184,-9.0475756698\C,0,5.3292922782,1.48703
 9863,-7.96312505\C,0,4.9970752234,1.5680182026,-6.6689566791\C,0,5.799
 3110149,0.9807385751,-5.5282495265\O,0,5.2961105083,0.2698821607,-2.86
 78721415\C,0,6.4536211696,3.2527111962,-4.5690777134\C,0,5.9601756963,
 1.9543791215,-4.3732484169\C,0,5.791462882,1.5242122867,-3.0492047546\
 C,0,6.1522437567,2.3178296648,-1.9665222359\C,0,6.6944025333,3.5834726
 128,-2.1956862202\C,0,6.8062603492,4.0675468109,-3.4963901828\O,0,9.25
 5380934,9.1561325332,1.4406167812\O,0,6.6774405053,3.7673531391,-5.806
 97234\H,0,9.5709086556,-3.3969408245,-9.7614447688\H,0,11.8127765496,-
 0.4008708347,-7.6533849401\H,0,9.719565783,0.5830607017,-6.8351491903\
 H,0,6.3864844054,-1.0326217582,-7.2394666966\H,0,7.8352039178,1.387179
 0291,-6.0976486695\H,0,7.3163473772,-3.2319531418,-9.5590407007\H,0,12
 .7176192313,-2.0990264334,-8.9269046089\H,0,7.7902591632,-1.4701515282
 ,-2.5452881867\H,0,8.775985492,-0.6502158294,-0.4280390383\H,0,9.61031
 98178,2.9441586636,-4.6610755926\H,0,10.0850202979,0.950310766,0.50133
 45726\H,0,11.3834597828,3.0172112073,-1.6311882902\H,0,11.6994161426,2
 .6852432343,-3.3240792168\H,0,9.5023807384,4.5621475707,-2.2263220337\
 H,0,9.0551503491,6.5172154509,-3.3105583894\H,0,10.3949015764,7.168507
 1935,-4.2782812699\H,0,9.0879751505,6.2957417317,-5.0744890751\H,0,11.
 9416181441,3.7773954973,-5.0374751612\H,0,10.9689233102,4.818293175,-6
 .089721187\H,0,12.2493504549,5.5187629518,-5.1068779266\H,0,7.71197364
 18,2.9999648908,0.5410255759\H,0,8.1285758589,8.3161128237,-0.73254713
 55\H,0,8.9712937476,4.7883957421,2.733979955\H,0,9.6175570846,7.138232
 991,3.1414135424\H,0,7.346722837,1.4818064738,-8.6766206992\H,0,6.3489
 566672,0.1955668208,-9.3275011441\H,0,3.6520699193,2.6748098209,-8.641
 4456118\H,0,5.1052955949,2.7884217011,-9.6583950355\H,0,4.1070353938,1
 .3393128455,-9.7233325569\H,0,4.0809904795,2.0832988423,-6.3801932968\
 H,0,5.2521032747,0.1083052576,-5.1545939585\H,0,5.3569209274,0.0359519
 232,-1.9324635476\H,0,6.0352279701,1.9414431396,-0.9547181226\H,0,7.21
 64721691,5.0494044761,-3.6973138653\H,0,9.6552983376,9.248974188,2.315
 1139759\H,0,6.2486359544,3.2036436353,-6.4759037009\\Version=ES64L-G16
 RevA.03\State=1-A\HF=-2184.7741347\RMSD=7.756e-09\Dipole=1.3165867,0.7
 282183,2.1360951\Quadrupole=-7.0343499,-28.1229195,35.1572694,8.799446
 ,8.7334538,-2.7947036\PG=C01 [X(C39H36O9)]\\@


 In the beginning there was nothing, which exploded.
 Job cpu time:       1 days  0 hours 30 minutes 38.5 seconds.
 Elapsed time:       0 days  0 hours 31 minutes 19.3 seconds.
 File lengths (MBytes):  RWF=   1117 Int=      0 D2E=      0 Chk=    129 Scr=      2
 Normal termination of Gaussian 16 at Thu Jul 13 09:32:24 2023.
