 Entering Gaussian System, Link 0=g16
 Input=MaDA-2-opt_freq-conf-1.com
 Output=MaDA-2-opt_freq-conf-1.log
 Initial command:
 /public/home/zhoujunsu/g16/l1.exe "/public/home/zhoujunsu/g16/scratch/Gau-431559.inp" -scrdir="/public/home/zhoujunsu/g16/scratch/"
 Entering Link 1 = /public/home/zhoujunsu/g16/l1.exe PID=    431560.
  
 Copyright (c) 1988,1990,1992,1993,1995,1998,2003,2009,2016,
            Gaussian, Inc.  All Rights Reserved.
  
 This is part of the Gaussian(R) 16 program.  It is based on
 the Gaussian(R) 09 system (copyright 2009, Gaussian, Inc.),
 the Gaussian(R) 03 system (copyright 2003, Gaussian, Inc.),
 the Gaussian(R) 98 system (copyright 1998, Gaussian, Inc.),
 the Gaussian(R) 94 system (copyright 1995, Gaussian, Inc.),
 the Gaussian 92(TM) system (copyright 1992, Gaussian, Inc.),
 the Gaussian 90(TM) system (copyright 1990, Gaussian, Inc.),
 the Gaussian 88(TM) system (copyright 1988, Gaussian, Inc.),
 the Gaussian 86(TM) system (copyright 1986, Carnegie Mellon
 University), and the Gaussian 82(TM) system (copyright 1983,
 Carnegie Mellon University). Gaussian is a federally registered
 trademark of Gaussian, Inc.
  
 This software contains proprietary and confidential information,
 including trade secrets, belonging to Gaussian, Inc.
  
 This software is provided under written license and may be
 used, copied, transmitted, or stored only in accord with that
 written license.
  
 The following legend is applicable only to US Government
 contracts under FAR:
  
                    RESTRICTED RIGHTS LEGEND
  
 Use, reproduction and disclosure by the US Government is
 subject to restrictions as set forth in subparagraphs (a)
 and (c) of the Commercial Computer Software - Restricted
 Rights clause in FAR 52.227-19.
  
 Gaussian, Inc.
 340 Quinnipiac St., Bldg. 40, Wallingford CT 06492
  
  
 ---------------------------------------------------------------
 Warning -- This program may not be used in any manner that
 competes with the business of Gaussian, Inc. or will provide
 assistance to any competitor of Gaussian, Inc.  The licensee
 of this program is prohibited from giving any competitor of
 Gaussian, Inc. access to this program.  By using this program,
 the user acknowledges that Gaussian, Inc. is engaged in the
 business of creating and licensing software in the field of
 computational chemistry and represents and warrants to the
 licensee that it is not a competitor of Gaussian, Inc. and that
 it will not use this program in any manner prohibited above.
 ---------------------------------------------------------------
  

 Cite this work as:
 Gaussian 16, Revision A.03,
 M. J. Frisch, G. W. Trucks, H. B. Schlegel, G. E. Scuseria, 
 M. A. Robb, J. R. Cheeseman, G. Scalmani, V. Barone, 
 G. A. Petersson, H. Nakatsuji, X. Li, M. Caricato, A. V. Marenich, 
 J. Bloino, B. G. Janesko, R. Gomperts, B. Mennucci, H. P. Hratchian, 
 J. V. Ortiz, A. F. Izmaylov, J. L. Sonnenberg, D. Williams-Young, 
 F. Ding, F. Lipparini, F. Egidi, J. Goings, B. Peng, A. Petrone, 
 T. Henderson, D. Ranasinghe, V. G. Zakrzewski, J. Gao, N. Rega, 
 G. Zheng, W. Liang, M. Hada, M. Ehara, K. Toyota, R. Fukuda, 
 J. Hasegawa, M. Ishida, T. Nakajima, Y. Honda, O. Kitao, H. Nakai, 
 T. Vreven, K. Throssell, J. A. Montgomery, Jr., J. E. Peralta, 
 F. Ogliaro, M. J. Bearpark, J. J. Heyd, E. N. Brothers, K. N. Kudin, 
 V. N. Staroverov, T. A. Keith, R. Kobayashi, J. Normand, 
 K. Raghavachari, A. P. Rendell, J. C. Burant, S. S. Iyengar, 
 J. Tomasi, M. Cossi, J. M. Millam, M. Klene, C. Adamo, R. Cammi, 
 J. W. Ochterski, R. L. Martin, K. Morokuma, O. Farkas, 
 J. B. Foresman, and D. J. Fox, Gaussian, Inc., Wallingford CT, 2016.
 
 ******************************************
 Gaussian 16:  ES64L-G16RevA.03 25-Dec-2016
                11-Jul-2023 
 ******************************************
 %mem=28gb
 %nproc=14
 Will use up to   14 processors via shared memory.
 %chk=MaDA-2-conf-1.chk
 ----------------------------------------------------------------------
 # wb97xd/6-31G(d) opt freq=noraman integral(ultrafinegrid) scrf=(cpcm,
 read,solvent=water)
 ----------------------------------------------------------------------
 1/18=20,19=15,26=6,38=1,40=2/1,3;
 2/9=110,12=2,17=6,18=5,40=1/2;
 3/5=1,6=6,7=1,11=2,25=1,30=1,70=2103,71=1,72=1,74=-58,75=-5/1,2,3;
 4//1;
 5/5=2,38=5,53=1/2;
 6/7=2,8=2,9=2,10=2,28=1/1;
 7//1,2,3,16;
 1/18=20,19=15,26=6/3(2);
 2/9=110/2;
 99//99;
 2/9=110/2;
 3/5=1,6=6,7=1,11=2,25=1,30=1,70=2105,71=1,72=1,74=-58,75=-5/1,2,3;
 4/5=5,16=3,69=1/1;
 5/5=2,38=5,53=1/2;
 7//1,2,3,16;
 1/18=20,19=15,26=6/3(-5);
 2/9=110/2;
 6/7=2,8=2,9=2,10=2,19=2,28=1/1;
 99/9=1/99;
 ----------------------------------------------------------------------
 Candidate Structure: MaDA-2, Conformer: 1, geometry optimization and f
 requency calculation with water solvation
 ----------------------------------------------------------------------
 Symbolic Z-matrix:
 Charge =  0 Multiplicity = 1
 C                     6.73079   0.48166  -0.00955 
 C                     6.93954  -0.87828   0.20066 
 C                     5.85158  -1.73961   0.3661 
 C                     4.56831  -1.22104   0.31413 
 C                     4.31432   0.13861   0.09814 
 C                     5.43413   0.98308  -0.05741 
 H                     7.59184   1.13196  -0.13541 
 H                     6.00986  -2.8003    0.54236 
 H                     3.73115  -1.89565   0.46348 
 O                     8.22465  -1.30527   0.23884 
 H                     8.23934  -2.25864   0.38648 
 O                     5.1966    2.3007   -0.2638 
 H                     6.03527   2.77172  -0.33471 
 C                     2.97094   0.70591   0.04468 
 H                     2.90286   1.79035   0.05855 
 C                     1.81347   0.02673  -0.02691 
 H                     1.80338  -1.05543  -0.07358 
 C                     0.53119   0.75837  -0.04927 
 O                     0.53939   1.99661   0.07439 
 C                    -0.73765   0.03194  -0.20853 
 C                    -0.80701  -1.35969  -0.412 
 C                    -1.96334   0.75213  -0.16683 
 C                    -2.00652  -2.0172   -0.54472 
 H                     0.10309  -1.94511  -0.47068 
 C                    -3.20092   0.09918  -0.30156 
 C                    -3.20305  -1.28598  -0.4799 
 H                    -2.05813  -3.08955  -0.69373 
 O                    -1.98881   2.07778  -0.00622 
 H                    -1.04048   2.36881   0.05528 
 O                    -4.34672  -1.98967  -0.61873 
 H                    -5.09428  -1.44508  -0.31814 
 C                    -4.48855   0.89854  -0.30536 
 H                    -4.24015   1.93665  -0.06685 
 H                    -4.90616   0.90864  -1.31898 
 C                    -5.50185   0.39869   0.69506 
 H                    -5.11392   0.30241   1.70964 
 C                    -6.78704   0.07402   0.48757 
 C                    -7.49493   0.15061  -0.84146 
 H                    -7.99439  -0.80009  -1.06516 
 H                    -8.27882   0.91749  -0.80629 
 H                    -6.83299   0.38954  -1.67616 
 C                    -7.65785  -0.38814   1.62857 
 H                    -7.10867  -0.42593   2.57344 
 H                    -8.51443   0.28575   1.75726 
 H                    -8.06859  -1.38587   1.42867 
 

 GradGradGradGradGradGradGradGradGradGradGradGradGradGradGradGradGradGrad
 Berny optimization.
 Initialization pass.
                           ----------------------------
                           !    Initial Parameters    !
                           ! (Angstroms and Degrees)  !
 --------------------------                            --------------------------
 ! Name  Definition              Value          Derivative Info.                !
 --------------------------------------------------------------------------------
 ! R1    R(1,2)                  1.3918         estimate D2E/DX2                !
 ! R2    R(1,6)                  1.3911         estimate D2E/DX2                !
 ! R3    R(1,7)                  1.0863         estimate D2E/DX2                !
 ! R4    R(2,3)                  1.3975         estimate D2E/DX2                !
 ! R5    R(2,10)                 1.3547         estimate D2E/DX2                !
 ! R6    R(3,4)                  1.3851         estimate D2E/DX2                !
 ! R7    R(3,8)                  1.0868         estimate D2E/DX2                !
 ! R8    R(4,5)                  1.3999         estimate D2E/DX2                !
 ! R9    R(4,9)                  1.0855         estimate D2E/DX2                !
 ! R10   R(5,6)                  1.4111         estimate D2E/DX2                !
 ! R11   R(5,14)                 1.4592         estimate D2E/DX2                !
 ! R12   R(6,12)                 1.3547         estimate D2E/DX2                !
 ! R13   R(10,11)                0.9648         estimate D2E/DX2                !
 ! R14   R(12,13)                0.9645         estimate D2E/DX2                !
 ! R15   R(14,15)                1.0867         estimate D2E/DX2                !
 ! R16   R(14,16)                1.3439         estimate D2E/DX2                !
 ! R17   R(16,17)                1.0832         estimate D2E/DX2                !
 ! R18   R(16,18)                1.4765         estimate D2E/DX2                !
 ! R19   R(18,19)                1.2444         estimate D2E/DX2                !
 ! R20   R(18,20)                1.4707         estimate D2E/DX2                !
 ! R21   R(20,21)                1.4081         estimate D2E/DX2                !
 ! R22   R(20,22)                1.4222         estimate D2E/DX2                !
 ! R23   R(21,23)                1.3743         estimate D2E/DX2                !
 ! R24   R(21,24)                1.0837         estimate D2E/DX2                !
 ! R25   R(22,25)                1.4057         estimate D2E/DX2                !
 ! R26   R(22,28)                1.3356         estimate D2E/DX2                !
 ! R27   R(23,26)                1.4038         estimate D2E/DX2                !
 ! R28   R(23,27)                1.0839         estimate D2E/DX2                !
 ! R29   R(25,26)                1.3966         estimate D2E/DX2                !
 ! R30   R(25,32)                1.5156         estimate D2E/DX2                !
 ! R31   R(26,30)                1.35           estimate D2E/DX2                !
 ! R32   R(28,29)                0.9939         estimate D2E/DX2                !
 ! R33   R(30,31)                0.9725         estimate D2E/DX2                !
 ! R34   R(32,33)                1.0937         estimate D2E/DX2                !
 ! R35   R(32,34)                1.0963         estimate D2E/DX2                !
 ! R36   R(32,35)                1.5091         estimate D2E/DX2                !
 ! R37   R(35,36)                1.0905         estimate D2E/DX2                !
 ! R38   R(35,37)                1.3417         estimate D2E/DX2                !
 ! R39   R(37,38)                1.5077         estimate D2E/DX2                !
 ! R40   R(37,42)                1.5079         estimate D2E/DX2                !
 ! R41   R(38,39)                1.097          estimate D2E/DX2                !
 ! R42   R(38,40)                1.0972         estimate D2E/DX2                !
 ! R43   R(38,41)                1.0918         estimate D2E/DX2                !
 ! R44   R(42,43)                1.0935         estimate D2E/DX2                !
 ! R45   R(42,44)                1.0975         estimate D2E/DX2                !
 ! R46   R(42,45)                1.0973         estimate D2E/DX2                !
 ! A1    A(2,1,6)              119.8149         estimate D2E/DX2                !
 ! A2    A(2,1,7)              118.9155         estimate D2E/DX2                !
 ! A3    A(6,1,7)              121.2695         estimate D2E/DX2                !
 ! A4    A(1,2,3)              120.221          estimate D2E/DX2                !
 ! A5    A(1,2,10)             117.0324         estimate D2E/DX2                !
 ! A6    A(3,2,10)             122.7463         estimate D2E/DX2                !
 ! A7    A(2,3,4)              119.0851         estimate D2E/DX2                !
 ! A8    A(2,3,8)              120.4868         estimate D2E/DX2                !
 ! A9    A(4,3,8)              120.4256         estimate D2E/DX2                !
 ! A10   A(3,4,5)              122.5141         estimate D2E/DX2                !
 ! A11   A(3,4,9)              118.4708         estimate D2E/DX2                !
 ! A12   A(5,4,9)              119.0072         estimate D2E/DX2                !
 ! A13   A(4,5,6)              117.0169         estimate D2E/DX2                !
 ! A14   A(4,5,14)             123.3844         estimate D2E/DX2                !
 ! A15   A(6,5,14)             119.5946         estimate D2E/DX2                !
 ! A16   A(1,6,5)              121.3456         estimate D2E/DX2                !
 ! A17   A(1,6,12)             121.2838         estimate D2E/DX2                !
 ! A18   A(5,6,12)             117.3693         estimate D2E/DX2                !
 ! A19   A(2,10,11)            109.2799         estimate D2E/DX2                !
 ! A20   A(6,12,13)            109.4962         estimate D2E/DX2                !
 ! A21   A(5,14,15)            116.4347         estimate D2E/DX2                !
 ! A22   A(5,14,16)            126.7527         estimate D2E/DX2                !
 ! A23   A(15,14,16)           116.8116         estimate D2E/DX2                !
 ! A24   A(14,16,17)           121.0106         estimate D2E/DX2                !
 ! A25   A(14,16,18)           119.8912         estimate D2E/DX2                !
 ! A26   A(17,16,18)           119.0975         estimate D2E/DX2                !
 ! A27   A(16,18,19)           119.0669         estimate D2E/DX2                !
 ! A28   A(16,18,20)           120.4069         estimate D2E/DX2                !
 ! A29   A(19,18,20)           120.5255         estimate D2E/DX2                !
 ! A30   A(18,20,21)           123.1121         estimate D2E/DX2                !
 ! A31   A(18,20,22)           119.3552         estimate D2E/DX2                !
 ! A32   A(21,20,22)           117.5314         estimate D2E/DX2                !
 ! A33   A(20,21,23)           121.9893         estimate D2E/DX2                !
 ! A34   A(20,21,24)           120.0218         estimate D2E/DX2                !
 ! A35   A(23,21,24)           117.9888         estimate D2E/DX2                !
 ! A36   A(20,22,25)           121.3794         estimate D2E/DX2                !
 ! A37   A(20,22,28)           121.5049         estimate D2E/DX2                !
 ! A38   A(25,22,28)           117.1145         estimate D2E/DX2                !
 ! A39   A(21,23,26)           119.3589         estimate D2E/DX2                !
 ! A40   A(21,23,27)           121.8818         estimate D2E/DX2                !
 ! A41   A(26,23,27)           118.7585         estimate D2E/DX2                !
 ! A42   A(22,25,26)           118.3118         estimate D2E/DX2                !
 ! A43   A(22,25,32)           120.2135         estimate D2E/DX2                !
 ! A44   A(26,25,32)           121.4322         estimate D2E/DX2                !
 ! A45   A(23,26,25)           121.4145         estimate D2E/DX2                !
 ! A46   A(23,26,30)           116.4769         estimate D2E/DX2                !
 ! A47   A(25,26,30)           122.1015         estimate D2E/DX2                !
 ! A48   A(22,28,29)           106.2532         estimate D2E/DX2                !
 ! A49   A(26,30,31)           109.1199         estimate D2E/DX2                !
 ! A50   A(25,32,33)           107.8846         estimate D2E/DX2                !
 ! A51   A(25,32,34)           109.3177         estimate D2E/DX2                !
 ! A52   A(25,32,35)           113.2101         estimate D2E/DX2                !
 ! A53   A(33,32,34)           106.2229         estimate D2E/DX2                !
 ! A54   A(33,32,35)           108.8029         estimate D2E/DX2                !
 ! A55   A(34,32,35)           111.1119         estimate D2E/DX2                !
 ! A56   A(32,35,36)           114.0265         estimate D2E/DX2                !
 ! A57   A(32,35,37)           128.3745         estimate D2E/DX2                !
 ! A58   A(36,35,37)           117.5984         estimate D2E/DX2                !
 ! A59   A(35,37,38)           125.0118         estimate D2E/DX2                !
 ! A60   A(35,37,42)           120.6849         estimate D2E/DX2                !
 ! A61   A(38,37,42)           114.2946         estimate D2E/DX2                !
 ! A62   A(37,38,39)           110.4569         estimate D2E/DX2                !
 ! A63   A(37,38,40)           110.0409         estimate D2E/DX2                !
 ! A64   A(37,38,41)           113.6017         estimate D2E/DX2                !
 ! A65   A(39,38,40)           106.6774         estimate D2E/DX2                !
 ! A66   A(39,38,41)           108.0479         estimate D2E/DX2                !
 ! A67   A(40,38,41)           107.7407         estimate D2E/DX2                !
 ! A68   A(37,42,43)           111.986          estimate D2E/DX2                !
 ! A69   A(37,42,44)           110.5652         estimate D2E/DX2                !
 ! A70   A(37,42,45)           110.9147         estimate D2E/DX2                !
 ! A71   A(43,42,44)           108.1731         estimate D2E/DX2                !
 ! A72   A(43,42,45)           108.2986         estimate D2E/DX2                !
 ! A73   A(44,42,45)           106.7093         estimate D2E/DX2                !
 ! D1    D(6,1,2,3)             -0.1241         estimate D2E/DX2                !
 ! D2    D(6,1,2,10)          -179.915          estimate D2E/DX2                !
 ! D3    D(7,1,2,3)            179.9945         estimate D2E/DX2                !
 ! D4    D(7,1,2,10)             0.2036         estimate D2E/DX2                !
 ! D5    D(2,1,6,5)             -0.2505         estimate D2E/DX2                !
 ! D6    D(2,1,6,12)          -179.8253         estimate D2E/DX2                !
 ! D7    D(7,1,6,5)            179.628          estimate D2E/DX2                !
 ! D8    D(7,1,6,12)             0.0532         estimate D2E/DX2                !
 ! D9    D(1,2,3,4)              0.1716         estimate D2E/DX2                !
 ! D10   D(1,2,3,8)           -179.2635         estimate D2E/DX2                !
 ! D11   D(10,2,3,4)           179.9502         estimate D2E/DX2                !
 ! D12   D(10,2,3,8)             0.515          estimate D2E/DX2                !
 ! D13   D(1,2,10,11)         -179.8307         estimate D2E/DX2                !
 ! D14   D(3,2,10,11)            0.3841         estimate D2E/DX2                !
 ! D15   D(2,3,4,5)              0.1576         estimate D2E/DX2                !
 ! D16   D(2,3,4,9)           -178.8062         estimate D2E/DX2                !
 ! D17   D(8,3,4,5)            179.5931         estimate D2E/DX2                !
 ! D18   D(8,3,4,9)              0.6292         estimate D2E/DX2                !
 ! D19   D(3,4,5,6)             -0.5101         estimate D2E/DX2                !
 ! D20   D(3,4,5,14)          -179.7708         estimate D2E/DX2                !
 ! D21   D(9,4,5,6)            178.4485         estimate D2E/DX2                !
 ! D22   D(9,4,5,14)            -0.8123         estimate D2E/DX2                !
 ! D23   D(4,5,6,1)              0.5536         estimate D2E/DX2                !
 ! D24   D(4,5,6,12)          -179.8555         estimate D2E/DX2                !
 ! D25   D(14,5,6,1)           179.8438         estimate D2E/DX2                !
 ! D26   D(14,5,6,12)           -0.5654         estimate D2E/DX2                !
 ! D27   D(4,5,14,15)          168.8886         estimate D2E/DX2                !
 ! D28   D(4,5,14,16)          -11.4934         estimate D2E/DX2                !
 ! D29   D(6,5,14,15)          -10.354          estimate D2E/DX2                !
 ! D30   D(6,5,14,16)          169.264          estimate D2E/DX2                !
 ! D31   D(1,6,12,13)           -1.6388         estimate D2E/DX2                !
 ! D32   D(5,6,12,13)          178.7701         estimate D2E/DX2                !
 ! D33   D(5,14,16,17)          -1.3884         estimate D2E/DX2                !
 ! D34   D(5,14,16,18)         178.9045         estimate D2E/DX2                !
 ! D35   D(15,14,16,17)        178.2283         estimate D2E/DX2                !
 ! D36   D(15,14,16,18)         -1.4788         estimate D2E/DX2                !
 ! D37   D(14,16,18,19)         -3.9917         estimate D2E/DX2                !
 ! D38   D(14,16,18,20)        176.3225         estimate D2E/DX2                !
 ! D39   D(17,16,18,19)        176.2956         estimate D2E/DX2                !
 ! D40   D(17,16,18,20)         -3.3902         estimate D2E/DX2                !
 ! D41   D(16,18,20,21)         -3.2312         estimate D2E/DX2                !
 ! D42   D(16,18,20,22)        177.1943         estimate D2E/DX2                !
 ! D43   D(19,18,20,21)        177.0876         estimate D2E/DX2                !
 ! D44   D(19,18,20,22)         -2.4869         estimate D2E/DX2                !
 ! D45   D(18,20,21,23)        179.3373         estimate D2E/DX2                !
 ! D46   D(18,20,21,24)         -0.8156         estimate D2E/DX2                !
 ! D47   D(22,20,21,23)         -1.0809         estimate D2E/DX2                !
 ! D48   D(22,20,21,24)        178.7662         estimate D2E/DX2                !
 ! D49   D(18,20,22,25)       -179.3871         estimate D2E/DX2                !
 ! D50   D(18,20,22,28)          1.0205         estimate D2E/DX2                !
 ! D51   D(21,20,22,25)          1.0147         estimate D2E/DX2                !
 ! D52   D(21,20,22,28)       -178.5776         estimate D2E/DX2                !
 ! D53   D(20,21,23,26)          0.1593         estimate D2E/DX2                !
 ! D54   D(20,21,23,27)       -179.5246         estimate D2E/DX2                !
 ! D55   D(24,21,23,26)       -179.6907         estimate D2E/DX2                !
 ! D56   D(24,21,23,27)          0.6253         estimate D2E/DX2                !
 ! D57   D(20,22,25,26)         -0.0364         estimate D2E/DX2                !
 ! D58   D(20,22,25,32)       -177.6978         estimate D2E/DX2                !
 ! D59   D(28,22,25,26)        179.5732         estimate D2E/DX2                !
 ! D60   D(28,22,25,32)          1.9117         estimate D2E/DX2                !
 ! D61   D(20,22,28,29)          0.5737         estimate D2E/DX2                !
 ! D62   D(25,22,28,29)       -179.0353         estimate D2E/DX2                !
 ! D63   D(21,23,26,25)          0.8873         estimate D2E/DX2                !
 ! D64   D(21,23,26,30)        179.9354         estimate D2E/DX2                !
 ! D65   D(27,23,26,25)       -179.4188         estimate D2E/DX2                !
 ! D66   D(27,23,26,30)         -0.3707         estimate D2E/DX2                !
 ! D67   D(22,25,26,23)         -0.9351         estimate D2E/DX2                !
 ! D68   D(22,25,26,30)       -179.9293         estimate D2E/DX2                !
 ! D69   D(32,25,26,23)        176.6965         estimate D2E/DX2                !
 ! D70   D(32,25,26,30)         -2.2977         estimate D2E/DX2                !
 ! D71   D(22,25,32,33)         -7.0106         estimate D2E/DX2                !
 ! D72   D(22,25,32,34)        108.089          estimate D2E/DX2                !
 ! D73   D(22,25,32,35)       -127.4667         estimate D2E/DX2                !
 ! D74   D(26,25,32,33)        175.4023         estimate D2E/DX2                !
 ! D75   D(26,25,32,34)        -69.4981         estimate D2E/DX2                !
 ! D76   D(26,25,32,35)         54.9462         estimate D2E/DX2                !
 ! D77   D(23,26,30,31)        164.5425         estimate D2E/DX2                !
 ! D78   D(25,26,30,31)        -16.4165         estimate D2E/DX2                !
 ! D79   D(25,32,35,36)         52.4495         estimate D2E/DX2                !
 ! D80   D(25,32,35,37)       -127.8299         estimate D2E/DX2                !
 ! D81   D(33,32,35,36)        -67.4833         estimate D2E/DX2                !
 ! D82   D(33,32,35,37)        112.2373         estimate D2E/DX2                !
 ! D83   D(34,32,35,36)        175.9127         estimate D2E/DX2                !
 ! D84   D(34,32,35,37)         -4.3668         estimate D2E/DX2                !
 ! D85   D(32,35,37,38)         -0.0407         estimate D2E/DX2                !
 ! D86   D(32,35,37,42)       -178.9033         estimate D2E/DX2                !
 ! D87   D(36,35,37,38)        179.6713         estimate D2E/DX2                !
 ! D88   D(36,35,37,42)          0.8087         estimate D2E/DX2                !
 ! D89   D(35,37,38,39)        128.4201         estimate D2E/DX2                !
 ! D90   D(35,37,38,40)       -114.0563         estimate D2E/DX2                !
 ! D91   D(35,37,38,41)          6.8302         estimate D2E/DX2                !
 ! D92   D(42,37,38,39)        -52.6531         estimate D2E/DX2                !
 ! D93   D(42,37,38,40)         64.8705         estimate D2E/DX2                !
 ! D94   D(42,37,38,41)       -174.243          estimate D2E/DX2                !
 ! D95   D(35,37,42,43)         -0.789          estimate D2E/DX2                !
 ! D96   D(35,37,42,44)        119.9229         estimate D2E/DX2                !
 ! D97   D(35,37,42,45)       -121.9048         estimate D2E/DX2                !
 ! D98   D(38,37,42,43)       -179.7669         estimate D2E/DX2                !
 ! D99   D(38,37,42,44)        -59.055          estimate D2E/DX2                !
 ! D100  D(38,37,42,45)         59.1173         estimate D2E/DX2                !
 --------------------------------------------------------------------------------
 Trust Radius=3.00D-01 FncErr=5.00D-06 GrdErr=5.00D-06 EigMax=2.50D+02 EigMin=1.00D-04
 Number of steps in this run=    229 maximum allowed number of steps=    270.
 GradGradGradGradGradGradGradGradGradGradGradGradGradGradGradGradGradGrad

                          Input orientation:                          
 ---------------------------------------------------------------------
 Center     Atomic      Atomic             Coordinates (Angstroms)
 Number     Number       Type             X           Y           Z
 ---------------------------------------------------------------------
      1          6           0        6.730792    0.481659   -0.009546
      2          6           0        6.939544   -0.878280    0.200661
      3          6           0        5.851575   -1.739608    0.366096
      4          6           0        4.568305   -1.221041    0.314130
      5          6           0        4.314324    0.138606    0.098141
      6          6           0        5.434128    0.983075   -0.057413
      7          1           0        7.591842    1.131964   -0.135406
      8          1           0        6.009861   -2.800299    0.542361
      9          1           0        3.731154   -1.895650    0.463475
     10          8           0        8.224654   -1.305269    0.238839
     11          1           0        8.239336   -2.258637    0.386480
     12          8           0        5.196605    2.300698   -0.263797
     13          1           0        6.035270    2.771719   -0.334713
     14          6           0        2.970938    0.705909    0.044681
     15          1           0        2.902862    1.790348    0.058547
     16          6           0        1.813468    0.026730   -0.026906
     17          1           0        1.803375   -1.055430   -0.073578
     18          6           0        0.531185    0.758370   -0.049270
     19          8           0        0.539388    1.996612    0.074394
     20          6           0       -0.737651    0.031940   -0.208530
     21          6           0       -0.807005   -1.359689   -0.412000
     22          6           0       -1.963342    0.752127   -0.166834
     23          6           0       -2.006520   -2.017204   -0.544715
     24          1           0        0.103087   -1.945108   -0.470678
     25          6           0       -3.200919    0.099179   -0.301555
     26          6           0       -3.203054   -1.285981   -0.479898
     27          1           0       -2.058127   -3.089548   -0.693726
     28          8           0       -1.988810    2.077783   -0.006216
     29          1           0       -1.040478    2.368808    0.055279
     30          8           0       -4.346717   -1.989666   -0.618726
     31          1           0       -5.094283   -1.445084   -0.318142
     32          6           0       -4.488555    0.898538   -0.305356
     33          1           0       -4.240153    1.936648   -0.066854
     34          1           0       -4.906163    0.908642   -1.318975
     35          6           0       -5.501849    0.398689    0.695056
     36          1           0       -5.113923    0.302405    1.709638
     37          6           0       -6.787043    0.074015    0.487568
     38          6           0       -7.494926    0.150610   -0.841456
     39          1           0       -7.994394   -0.800085   -1.065161
     40          1           0       -8.278819    0.917490   -0.806288
     41          1           0       -6.832990    0.389544   -1.676155
     42          6           0       -7.657850   -0.388137    1.628574
     43          1           0       -7.108668   -0.425931    2.573436
     44          1           0       -8.514428    0.285748    1.757260
     45          1           0       -8.068592   -1.385866    1.428665
 ---------------------------------------------------------------------
                    Distance matrix (angstroms):
                    1          2          3          4          5
     1  C    0.000000
     2  C    1.391833   0.000000
     3  C    2.418296   1.397473   0.000000
     4  C    2.771336   2.398569   1.385061   0.000000
     5  C    2.443072   2.817152   2.441849   1.399928   0.000000
     6  C    1.391060   2.407804   2.786866   2.397044   1.411129
     7  H    1.086345   2.139980   3.394990   3.857524   3.432700
     8  H    3.405230   2.162227   1.086825   2.150402   3.421891
     9  H    3.856576   3.376075   2.128384   1.085460   2.147499
    10  O    2.342313   1.354727   2.415854   3.658094   4.170762
    11  H    3.153056   1.905091   2.443606   3.815535   4.608214
    12  O    2.393173   3.655059   4.141235   3.623728   2.363062
    13  H    2.415338   3.798267   4.569130   4.302919   3.175264
    14  C    3.766926   4.275958   3.792352   2.517404   1.459238
    15  H    4.046029   4.841133   4.609781   3.450723   2.173027
    16  C    4.938354   5.210325   4.425009   3.043413   2.506478
    17  H    5.161994   5.146535   4.129084   2.796888   2.785691
    18  C    6.205906   6.618773   5.892281   4.510927   3.836402
    19  O    6.374607   7.017332   6.501058   5.161680   4.207480
    20  C    7.484616   7.741787   6.847370   5.476888   5.062398
    21  C    7.769872   7.785636   6.714645   5.425905   5.360330
    22  C    8.699762   9.058403   8.219835   6.840112   6.313138
    23  C    9.103370   9.049022   7.915573   6.678309   6.709236
    24  H    7.073070   6.951688   5.812705   4.591118   4.732857
    25  C    9.943362  10.199835   9.261455   7.904612   7.525968
    26  C   10.100845  10.173577   9.105371   7.812088   7.672975
    27  H    9.511399   9.308476   8.093760   6.958210   7.187222
    28  O    8.864484   9.407264   8.728272   7.347150   6.595513
    29  H    7.997385   8.616581   8.029700   6.664268   5.800823
    30  O   11.366167  11.370412  10.248783   8.996589   8.947462
    31  H   11.984989  12.058334  10.971177   9.685844   9.550039
    32  C   11.230986  11.576467  10.692472   9.322183   8.844828
    33  H   11.067155  11.531739  10.749199   9.365099   8.742955
    34  H   11.718176  12.075726  11.206321   9.847239   9.360478
    35  C   12.253198  12.516523  11.557715  10.206695   9.837744
    36  H   11.970171  12.204798  11.234637   9.900195   9.566378
    37  C   13.533113  13.762571  12.768659  11.430275  11.108383
    38  C   14.253867  14.508568  13.533669  12.195833  11.846576
    39  H   14.818512  14.987692  13.951418  12.645199  12.399151
    40  H   15.037060  15.356995  14.425765  13.072002  12.649581
    41  H   13.666099  13.957525  13.023144  11.685236  11.290425
    42  C   14.507688  14.675254  13.635428  12.324786  12.081086
    43  H   14.107663  14.254366  13.212343  11.920082  11.701732
    44  H   15.348509  15.575725  14.574617  13.248054  12.936429
    45  H   14.985922  15.066844  13.965144  12.687022  12.547148
                    6          7          8          9         10
     6  C    0.000000
     7  H    2.164251   0.000000
     8  H    3.873644   4.292403   0.000000
     9  H    3.385041   4.942673   2.452982   0.000000
    10  O    3.620956   2.545705   2.689340   4.537681   0.000000
    11  H    4.309864   3.491101   2.299621   4.523427   0.964844
    12  O    1.354674   2.668255   5.227949   4.503977   4.735475
    13  H    1.907227   2.269678   5.640682   5.265965   4.663067
    14  C    2.480836   4.643997   4.666501   2.742522   5.628860
    15  H    2.659407   4.738947   5.564311   3.799555   6.159287
    16  C    3.744957   5.884124   5.091745   2.759264   6.553484
    17  H    4.163908   6.188285   4.595484   2.170421   6.433727
    18  C    4.908096   7.071059   6.559729   4.188858   7.970638
    19  O    5.000311   7.108357   7.290777   5.048609   8.366168
    20  C    6.246467   8.402134   7.356245   4.912984   9.072551
    21  C    6.675778   8.765014   7.032483   4.652805   9.055243
    22  C    7.401883   9.562782   8.757548   6.311521  10.401573
    23  C    8.037561  10.110062   8.127566   5.826845  10.285802
    24  H    6.096314   8.103223   6.053724   3.746726   8.177570
    25  C    8.683600  10.843336   9.693175   7.253844  11.524245
    26  C    8.940247  11.067742   9.392336   7.024592  11.450304
    27  H    8.551318  10.547738   8.167252   6.023311  10.478021
    28  O    7.503400   9.628092   9.384847   6.980456  10.761967
    29  H    6.622196   8.722562   8.755809   6.412542   9.968711
    30  O   10.238027  12.349387  10.452940   8.150583  12.619159
    31  H   10.807931  12.946518  11.219585   8.871430  13.331311
    32  C    9.926140  12.083847  11.163188   8.715630  12.914279
    33  H    9.721168  11.859525  11.308077   8.860558  12.883124
    34  H   10.417231  12.555908  11.678202   9.254427  13.406959
    35  C   10.977400  13.140476  11.948904   9.516615  13.839382
    36  H   10.716677  12.865800  11.607234   9.198900  13.515380
    37  C   12.267046  14.431205  13.115847  10.701057  15.076980
    38  C   12.979528  15.135129  13.892519  11.485421  15.823774
    39  H   13.583829  15.733023  14.237420  11.875414  16.279224
    40  H   13.733537  15.886282  14.825896  12.400222  16.685250
    41  H   12.387687  14.525869  13.417740  11.018224  15.273252
    42  C   13.271121  15.426453  13.921376  11.547271  15.969547
    43  H   12.892959  15.028967  13.485499  11.140635  15.534939
    44  H   14.083377  16.239156  14.898142  12.505465  16.882944
    45  H   13.789262  15.938475  14.177059  11.850126  16.336831
                   11         12         13         14         15
    11  H    0.000000
    12  O    5.519838   0.000000
    13  H    5.539179   0.964494   0.000000
    14  C    6.054864   2.755377   3.715056   0.000000
    15  H    6.706696   2.371839   3.306013   1.086662   0.000000
    16  C    6.832684   4.083217   5.045129   1.343929   2.074712
    17  H    6.563608   4.776378   5.711759   2.116484   3.053650
    18  C    8.289017   4.918429   5.867709   2.442125   2.588717
    19  O    8.803053   4.679371   5.565328   2.753041   2.372510
    20  C    9.283699   6.353402   7.307173   3.777828   4.051748
    21  C    9.125895   7.033046   7.993199   4.329908   4.889505
    22  C   10.652018   7.326139   8.251347   4.939028   4.980827
    23  C   10.290917   8.402869   9.362066   5.704193   6.242068
    24  H    8.187281   6.634274   7.580088   3.939296   4.698133
    25  C   11.700945   8.681389   9.615132   6.211266   6.343963
    26  C   11.516291   9.135931  10.091216   6.508532   6.858275
    27  H   10.387252   9.048244   9.999321   6.343677   6.999337
    28  O   11.116372   7.193485   8.060727   5.146234   4.900538
    29  H   10.374868   6.245611   7.097932   4.342442   3.985544
    30  O   12.628995  10.469393  11.425284   7.826513   8.203877
    31  H   13.376986  10.951539  11.901624   8.355011   8.635059
    32  C   13.131854   9.786220  10.689273   7.470185   7.453911
    33  H   13.173594   9.445831  10.312779   7.316214   7.145614
    34  H   13.628807  10.252665  11.142477   7.996836   7.978461
    35  C   13.999170  10.908435  11.823570   8.503264   8.542893
    36  H   13.660864  10.686188  11.600922   8.264374   8.319190
    37  C   15.206694  12.211899  13.128803   9.788444   9.850082
    38  C   15.964940  12.885322  13.791055  10.517980  10.564693
    39  H   16.363637  13.574222  14.495613  11.123771  11.257142
    40  H   16.862975  13.557087  14.441388  11.283880  11.248992
    41  H   15.441578  12.262072  13.155468   9.958834   9.987906
    42  C   16.054971  13.268305  14.189458  10.801703  10.896762
    43  H   15.610984  12.919139  13.836380  10.453426  10.557807
    44  H   17.001222  14.004896  14.908055  11.619944  11.640617
    45  H   16.364486  13.871576  14.809252  11.320873  11.503841
                   16         17         18         19         20
    16  C    0.000000
    17  H    1.083213   0.000000
    18  C    1.476498   2.215610   0.000000
    19  O    2.348186   3.306738   1.244429   0.000000
    20  C    2.557581   2.767201   1.470717   2.360256   0.000000
    21  C    2.989537   2.649752   2.531501   3.648850   1.408134
    22  C    3.848386   4.179009   2.497304   2.805457   1.422226
    23  C    4.363267   3.957560   3.793313   4.793293   2.433524
    24  H    2.647731   1.959641   2.769413   4.003076   2.164320
    25  C    5.022426   5.140822   3.798260   4.210877   2.465941
    26  C    5.205181   5.028179   4.278943   5.008845   2.808695
    27  H    5.014488   4.408335   4.682556   5.762475   3.423852
    28  O    4.320251   4.919576   2.844834   2.530785   2.406617
    29  H    3.692843   4.453034   2.252680   1.623229   2.371129
    30  O    6.508762   6.244487   5.627603   6.343883   4.156983
    31  H    7.068810   6.912983   6.047594   6.613441   4.601506
    32  C    6.368130   6.592427   5.028222   5.160444   3.850928
    33  H    6.347890   6.743649   4.914704   4.782004   3.989424
    34  H    6.899323   7.101161   5.585650   5.725311   4.402066
    35  C    7.360261   7.488094   6.089408   6.279739   4.862978
    36  H    7.147050   7.271354   5.930338   6.124074   4.785841
    37  C    8.616015   8.682500   7.369735   7.585755   6.089455
    38  C    9.344787   9.407580   8.087978   8.294378   6.787889
    39  H    9.897260   9.851128   8.726186   9.052377   7.354346
    40  H   10.161454  10.299510   8.843900   8.927535   7.616477
    41  H    8.809818   8.901854   7.550752   7.745905   6.279726
    42  C    9.623855   9.636253   8.437413   8.677397   7.172208
    43  H    9.304364   9.318125   8.163854   8.402778   6.966982
    44  H   10.484072  10.564459   9.236343   9.366466   8.025398
    45  H   10.088073   9.991079   8.985444   9.347327   7.644166
                   21         22         23         24         25
    21  C    0.000000
    22  C    2.420122   0.000000
    23  C    1.374327   2.795327   0.000000
    24  H    1.083709   3.411382   2.112137   0.000000
    25  C    2.805587   1.405734   2.442293   3.888980   0.000000
    26  C    2.398144   2.405988   1.403774   3.371217   1.396596
    27  H    2.153390   3.878797   1.083877   2.455675   3.409949
    28  O    3.657532   1.335594   4.130280   4.558005   2.339083
    29  H    3.764910   1.874745   4.531041   4.493800   3.153736
    30  O    3.601273   3.660889   2.341529   4.452489   2.403482
    31  H    4.289155   3.827979   3.148482   5.223595   2.443328
    32  C    4.320275   2.533244   3.836579   5.403409   1.515584
    33  H    4.771946   2.568454   4.566225   5.839078   2.124002
    34  H    4.771900   3.164194   4.191418   5.827185   2.144349
    35  C    5.134104   3.659072   4.426160   6.186083   2.525316
    36  H    5.080694   3.694531   4.485381   6.084594   2.783125
    37  C    6.214948   4.914893   5.319042   7.243548   3.672007
    38  C    6.869769   5.604941   5.908475   7.890457   4.328121
    39  H    7.238670   6.292054   6.132445   8.199615   4.936514
    40  H    7.821062   6.349921   6.929833   8.863603   5.168119
    41  H    6.400812   5.111065   5.510663   7.417071   3.894326
    42  C    7.214009   6.078743   6.270134   8.189210   4.881302
    43  H    7.035317   5.947376   6.187643   7.973954   4.879735
    44  H    8.174199   6.843711   7.277056   9.176164   5.701483
    45  H    7.491287   6.662635   6.406367   8.408127   5.375245
                   26         27         28         29         30
    26  C    0.000000
    27  H    2.146959   0.000000
    28  O    3.607447   5.213328   0.000000
    29  H    4.280261   5.602702   0.993887   0.000000
    30  O    1.349967   2.540277   4.741206   5.511968   0.000000
    31  H    1.904790   3.473265   4.706575   5.578400   0.972510
    32  C    2.540689   4.686432   2.780077   3.765765   2.908615
    33  H    3.410501   5.515148   2.256577   3.231037   3.966341
    34  H    2.901896   4.948512   3.406050   4.354788   3.033730
    35  C    3.082708   5.094677   3.956334   4.918792   2.960505
    36  H    3.311866   5.159398   3.982770   4.857971   3.356110
    37  C    3.953550   5.810872   5.223212   6.202899   3.381990
    38  C    4.540340   6.330816   5.893126   6.883635   3.813346
    39  H    4.851347   6.373294   6.743184   7.723614   3.862636
    40  H    5.543032   7.400408   6.445976   7.432510   4.893686
    41  H    4.173110   5.989037   5.394898   6.361489   3.600049
    42  C    5.009689   6.636836   6.394632   7.339320   4.310319
    43  H    5.031536   6.578538   6.255888   7.139651   4.501504
    44  H    5.973768   7.686597   6.993206   7.943287   5.309674
    45  H    5.227432   6.597936   7.142793   8.085676   4.290541
                   31         32         33         34         35
    31  H    0.000000
    32  C    2.420668   0.000000
    33  H    3.496969   1.093736   0.000000
    34  H    2.564582   1.096322   1.751620   0.000000
    35  C    2.142937   1.509118   2.130188   2.161299   0.000000
    36  H    2.676938   2.192410   2.567128   3.095672   1.090474
    37  C    2.412937   2.567414   3.203659   2.738231   1.341711
    38  C    2.929707   3.144052   3.792557   2.739403   2.528788
    39  H    3.063447   3.969072   4.751910   3.538551   3.278445
    40  H    3.995161   3.823270   4.230398   3.411412   3.199180
    41  H    2.869349   2.763067   3.421430   2.027240   2.719313
    42  C    3.388025   3.929383   4.467634   4.235736   2.477679
    43  H    3.668466   4.111770   4.558650   4.667224   2.605797
    44  H    4.358952   4.564817   4.931763   4.782342   3.196352
    45  H    3.449834   4.587155   5.285132   4.776531   3.211073
                   36         37         38         39         40
    36  H    0.000000
    37  C    2.084454   0.000000
    38  C    3.492892   1.507737   0.000000
    39  H    4.148748   2.152374   1.096965   0.000000
    40  H    4.089594   2.147303   1.097192   1.760107   0.000000
    41  H    3.798207   2.187091   1.091774   1.771268   1.767998
    42  C    2.637230   1.507907   2.533346   2.745755   2.831752
    43  H    2.292516   2.168925   3.484693   3.763494   3.820545
    44  H    3.400879   2.154253   2.794812   3.068473   2.650733
    45  H    3.414568   2.158537   2.800589   2.562774   3.216311
                   41         42         43         44         45
    41  H    0.000000
    42  C    3.493768   0.000000
    43  H    4.335899   1.093523   0.000000
    44  H    3.824441   1.097455   1.774483   0.000000
    45  H    3.784006   1.097331   1.775790   1.760976   0.000000
 Stoichiometry    C20H20O5
 Framework group  C1[X(C20H20O5)]
 Deg. of freedom   129
 Full point group                 C1      NOp   1
 Largest Abelian subgroup         C1      NOp   1
 Largest concise Abelian subgroup C1      NOp   1
                         Standard orientation:                         
 ---------------------------------------------------------------------
 Center     Atomic      Atomic             Coordinates (Angstroms)
 Number     Number       Type             X           Y           Z
 ---------------------------------------------------------------------
      1          6           0        6.730792    0.481659   -0.009546
      2          6           0        6.939544   -0.878280    0.200661
      3          6           0        5.851575   -1.739608    0.366096
      4          6           0        4.568305   -1.221041    0.314130
      5          6           0        4.314324    0.138606    0.098141
      6          6           0        5.434128    0.983075   -0.057413
      7          1           0        7.591842    1.131964   -0.135406
      8          1           0        6.009861   -2.800299    0.542361
      9          1           0        3.731154   -1.895650    0.463475
     10          8           0        8.224654   -1.305269    0.238839
     11          1           0        8.239336   -2.258637    0.386480
     12          8           0        5.196605    2.300698   -0.263797
     13          1           0        6.035270    2.771719   -0.334713
     14          6           0        2.970938    0.705909    0.044681
     15          1           0        2.902862    1.790348    0.058547
     16          6           0        1.813468    0.026730   -0.026906
     17          1           0        1.803375   -1.055430   -0.073578
     18          6           0        0.531185    0.758370   -0.049270
     19          8           0        0.539388    1.996612    0.074394
     20          6           0       -0.737651    0.031940   -0.208530
     21          6           0       -0.807005   -1.359689   -0.412000
     22          6           0       -1.963342    0.752127   -0.166834
     23          6           0       -2.006520   -2.017204   -0.544715
     24          1           0        0.103087   -1.945108   -0.470678
     25          6           0       -3.200919    0.099179   -0.301555
     26          6           0       -3.203054   -1.285981   -0.479898
     27          1           0       -2.058127   -3.089548   -0.693726
     28          8           0       -1.988810    2.077783   -0.006216
     29          1           0       -1.040478    2.368808    0.055279
     30          8           0       -4.346717   -1.989666   -0.618726
     31          1           0       -5.094283   -1.445084   -0.318142
     32          6           0       -4.488555    0.898538   -0.305356
     33          1           0       -4.240153    1.936648   -0.066854
     34          1           0       -4.906163    0.908642   -1.318975
     35          6           0       -5.501849    0.398689    0.695056
     36          1           0       -5.113923    0.302405    1.709638
     37          6           0       -6.787043    0.074015    0.487568
     38          6           0       -7.494926    0.150610   -0.841456
     39          1           0       -7.994394   -0.800085   -1.065161
     40          1           0       -8.278819    0.917490   -0.806288
     41          1           0       -6.832990    0.389544   -1.676155
     42          6           0       -7.657850   -0.388137    1.628574
     43          1           0       -7.108668   -0.425931    2.573436
     44          1           0       -8.514428    0.285748    1.757260
     45          1           0       -8.068592   -1.385866    1.428665
 ---------------------------------------------------------------------
 Rotational constants (GHZ):           0.7597792           0.0626126           0.0591295
 Standard basis: 6-31G(d) (6D, 7F)
 There are   415 symmetry adapted cartesian basis functions of A   symmetry.
 There are   415 symmetry adapted basis functions of A   symmetry.
   415 basis functions,   780 primitive gaussians,   415 cartesian basis functions
    90 alpha electrons       90 beta electrons
       nuclear repulsion energy      1973.6855443057 Hartrees.
 NAtoms=   45 NActive=   45 NUniq=   45 SFac= 1.00D+00 NAtFMM=   60 NAOKFM=F Big=F
 Integral buffers will be    131072 words long.
 Raffenetti 2 integral format.
 Two-electron integral symmetry is turned on.
 Nuclear repulsion after empirical dispersion term =     1973.6557851345 Hartrees.
 Using the following non-standard input for PCM:
 --- end of non-standard input.
 ------------------------------------------------------------------------------
 Polarizable Continuum Model (PCM)
 =================================
 Model                : C-PCM.
 Atomic radii         : UFF (Universal Force Field).
 Polarization charges : Total charges.
 Charge compensation  : None.
 Solution method      : On-the-fly selection.
 Cavity type          : Scaled VdW (van der Waals Surface) (Alpha=1.100).
 Cavity algorithm     : GePol (No added spheres)
                        Default sphere list used, NSphG=   45.
                        Lebedev-Laikov grids with approx.  5.0 points / Ang**2.
                        Smoothing algorithm: York/Karplus (Gamma=1.0000).
                        Polarization charges: spherical gaussians, with
                                              point-specific exponents (IZeta= 3).
                        Self-potential: point-specific (ISelfS= 7).
                        Self-field    : sphere-specific E.n sum rule (ISelfD= 2).
 1st derivatives      : Analytical E(r).r(x)/FMM algorithm (CHGder, D1EAlg=3).
                        Cavity 1st derivative terms included.
 Solvent              : Water, Eps=  78.355300 Eps(inf)=   1.777849
 ------------------------------------------------------------------------------
 One-electron integrals computed using PRISM.
 NBasis=   415 RedAO= T EigKep=  3.17D-04  NBF=   415
 NBsUse=   415 1.00D-06 EigRej= -1.00D+00 NBFU=   415
 ExpMin= 1.61D-01 ExpMax= 5.48D+03 ExpMxC= 8.25D+02 IAcc=3 IRadAn=         5 AccDes= 0.00D+00
 Harris functional with IExCor= 4639 and IRadAn=       5 diagonalized for initial guess.
 HarFok:  IExCor= 4639 AccDes= 0.00D+00 IRadAn=         5 IDoV= 1 UseB2=F ITyADJ=14
 ICtDFT=  3500011 ScaDFX=  1.000000  1.000000  1.000000  1.000000
 FoFCou: FMM=F IPFlag=           0 FMFlag=      100000 FMFlg1=           0
         NFxFlg=           0 DoJE=T BraDBF=F KetDBF=T FulRan=T
         wScrn=  0.000000 ICntrl=       500 IOpCl=  0 I1Cent=   200000004 NGrid=           0
         NMat0=    1 NMatS0=      1 NMatT0=    0 NMatD0=    1 NMtDS0=    0 NMtDT0=    0
 Petite list used in FoFCou.
 Requested convergence on RMS density matrix=1.00D-08 within 128 cycles.
 Requested convergence on MAX density matrix=1.00D-06.
 Requested convergence on             energy=1.00D-06.
 No special actions if energy rises.
 Inv3:  Mode=1 IEnd=    33426732.
 Iteration    1 A*A^-1 deviation from unit magnitude is 4.44D-15 for     11.
 Iteration    1 A*A^-1 deviation from orthogonality  is 1.55D-15 for   2217    125.
 Iteration    1 A^-1*A deviation from unit magnitude is 4.44D-15 for     11.
 Iteration    1 A^-1*A deviation from orthogonality  is 2.11D-15 for   2480    825.
 Error on total polarization charges =  0.00986
 SCF Done:  E(RwB97XD) =  -1149.92215437     A.U. after   15 cycles
            NFock= 15  Conv=0.51D-08     -V/T= 2.0090

 **********************************************************************

            Population analysis using the SCF density.

 **********************************************************************

 Orbital symmetries:
       Occupied  (A) (A) (A) (A) (A) (A) (A) (A) (A) (A) (A) (A)
                 (A) (A) (A) (A) (A) (A) (A) (A) (A) (A) (A) (A)
                 (A) (A) (A) (A) (A) (A) (A) (A) (A) (A) (A) (A)
                 (A) (A) (A) (A) (A) (A) (A) (A) (A) (A) (A) (A)
                 (A) (A) (A) (A) (A) (A) (A) (A) (A) (A) (A) (A)
                 (A) (A) (A) (A) (A) (A) (A) (A) (A) (A) (A) (A)
                 (A) (A) (A) (A) (A) (A) (A) (A) (A) (A) (A) (A)
                 (A) (A) (A) (A) (A) (A)
       Virtual   (A) (A) (A) (A) (A) (A) (A) (A) (A) (A) (A) (A)
                 (A) (A) (A) (A) (A) (A) (A) (A) (A) (A) (A) (A)
                 (A) (A) (A) (A) (A) (A) (A) (A) (A) (A) (A) (A)
                 (A) (A) (A) (A) (A) (A) (A) (A) (A) (A) (A) (A)
                 (A) (A) (A) (A) (A) (A) (A) (A) (A) (A) (A) (A)
                 (A) (A) (A) (A) (A) (A) (A) (A) (A) (A) (A) (A)
                 (A) (A) (A) (A) (A) (A) (A) (A) (A) (A) (A) (A)
                 (A) (A) (A) (A) (A) (A) (A) (A) (A) (A) (A) (A)
                 (A) (A) (A) (A) (A) (A) (A) (A) (A) (A) (A) (A)
                 (A) (A) (A) (A) (A) (A) (A) (A) (A) (A) (A) (A)
                 (A) (A) (A) (A) (A) (A) (A) (A) (A) (A) (A) (A)
                 (A) (A) (A) (A) (A) (A) (A) (A) (A) (A) (A) (A)
                 (A) (A) (A) (A) (A) (A) (A) (A) (A) (A) (A) (A)
                 (A) (A) (A) (A) (A) (A) (A) (A) (A) (A) (A) (A)
                 (A) (A) (A) (A) (A) (A) (A) (A) (A) (A) (A) (A)
                 (A) (A) (A) (A) (A) (A) (A) (A) (A) (A) (A) (A)
                 (A) (A) (A) (A) (A) (A) (A) (A) (A) (A) (A) (A)
                 (A) (A) (A) (A) (A) (A) (A) (A) (A) (A) (A) (A)
                 (A) (A) (A) (A) (A) (A) (A) (A) (A) (A) (A) (A)
                 (A) (A) (A) (A) (A) (A) (A) (A) (A) (A) (A) (A)
                 (A) (A) (A) (A) (A) (A) (A) (A) (A) (A) (A) (A)
                 (A) (A) (A) (A) (A) (A) (A) (A) (A) (A) (A) (A)
                 (A) (A) (A) (A) (A) (A) (A) (A) (A) (A) (A) (A)
                 (A) (A) (A) (A) (A) (A) (A) (A) (A) (A) (A) (A)
                 (A) (A) (A) (A) (A) (A) (A) (A) (A) (A) (A) (A)
                 (A) (A) (A) (A) (A) (A) (A) (A) (A) (A) (A) (A)
                 (A) (A) (A) (A) (A) (A) (A) (A) (A) (A) (A) (A)
                 (A)
 The electronic state is 1-A.
 Alpha  occ. eigenvalues --  -19.31404 -19.31319 -19.30485 -19.29345 -19.26660
 Alpha  occ. eigenvalues --  -10.39895 -10.38048 -10.37955 -10.37846 -10.37524
 Alpha  occ. eigenvalues --  -10.32467 -10.31863 -10.31812 -10.31637 -10.31283
 Alpha  occ. eigenvalues --  -10.30936 -10.30717 -10.30608 -10.30399 -10.30376
 Alpha  occ. eigenvalues --  -10.30342 -10.29975 -10.29709 -10.29235 -10.29016
 Alpha  occ. eigenvalues --   -1.17886  -1.17589  -1.17495  -1.17089  -1.13758
 Alpha  occ. eigenvalues --   -0.96721  -0.96084  -0.92558  -0.90702  -0.88485
 Alpha  occ. eigenvalues --   -0.85887  -0.85302  -0.83659  -0.81884  -0.79147
 Alpha  occ. eigenvalues --   -0.75920  -0.74990  -0.73765  -0.72837  -0.70606
 Alpha  occ. eigenvalues --   -0.69309  -0.66563  -0.65127  -0.63575  -0.61734
 Alpha  occ. eigenvalues --   -0.61339  -0.59821  -0.59253  -0.58407  -0.57227
 Alpha  occ. eigenvalues --   -0.55629  -0.55116  -0.54076  -0.53132  -0.52773
 Alpha  occ. eigenvalues --   -0.52511  -0.52369  -0.51966  -0.51154  -0.50330
 Alpha  occ. eigenvalues --   -0.50117  -0.49429  -0.49213  -0.48956  -0.48586
 Alpha  occ. eigenvalues --   -0.47438  -0.46922  -0.46637  -0.46323  -0.45482
 Alpha  occ. eigenvalues --   -0.45335  -0.44228  -0.43969  -0.43522  -0.42649
 Alpha  occ. eigenvalues --   -0.42385  -0.41615  -0.40517  -0.37094  -0.34825
 Alpha  occ. eigenvalues --   -0.32384  -0.32075  -0.30818  -0.30005  -0.28237
 Alpha virt. eigenvalues --   -0.01383   0.04915   0.06976   0.07534   0.09685
 Alpha virt. eigenvalues --    0.11560   0.15793   0.16615   0.17021   0.17208
 Alpha virt. eigenvalues --    0.17455   0.19279   0.20131   0.20555   0.21314
 Alpha virt. eigenvalues --    0.22584   0.23626   0.23972   0.24472   0.24858
 Alpha virt. eigenvalues --    0.25464   0.25936   0.26307   0.26805   0.27024
 Alpha virt. eigenvalues --    0.28243   0.28804   0.29970   0.30684   0.31238
 Alpha virt. eigenvalues --    0.31813   0.32189   0.32501   0.33604   0.34009
 Alpha virt. eigenvalues --    0.34753   0.36164   0.37476   0.38279   0.39265
 Alpha virt. eigenvalues --    0.40865   0.41804   0.43953   0.44740   0.45950
 Alpha virt. eigenvalues --    0.46952   0.47577   0.49680   0.51037   0.52838
 Alpha virt. eigenvalues --    0.53207   0.55543   0.56991   0.57813   0.58519
 Alpha virt. eigenvalues --    0.59250   0.59431   0.60296   0.61187   0.61893
 Alpha virt. eigenvalues --    0.62260   0.62684   0.63228   0.63973   0.64499
 Alpha virt. eigenvalues --    0.64644   0.65802   0.66135   0.66563   0.67117
 Alpha virt. eigenvalues --    0.67404   0.68057   0.68502   0.69117   0.69799
 Alpha virt. eigenvalues --    0.70397   0.70650   0.71217   0.71351   0.72086
 Alpha virt. eigenvalues --    0.72726   0.72933   0.74040   0.74121   0.75272
 Alpha virt. eigenvalues --    0.76529   0.76817   0.78577   0.79742   0.80477
 Alpha virt. eigenvalues --    0.80938   0.81183   0.82550   0.83021   0.84236
 Alpha virt. eigenvalues --    0.85212   0.85265   0.86510   0.87528   0.88474
 Alpha virt. eigenvalues --    0.89527   0.89745   0.90954   0.92240   0.92854
 Alpha virt. eigenvalues --    0.93741   0.94548   0.95114   0.95301   0.96366
 Alpha virt. eigenvalues --    0.96921   0.97484   0.98173   0.98315   0.99070
 Alpha virt. eigenvalues --    1.00055   1.00773   1.01568   1.02414   1.02728
 Alpha virt. eigenvalues --    1.03159   1.03668   1.03986   1.04803   1.05962
 Alpha virt. eigenvalues --    1.06114   1.06269   1.06572   1.07821   1.08133
 Alpha virt. eigenvalues --    1.09306   1.10152   1.10701   1.11665   1.11761
 Alpha virt. eigenvalues --    1.13601   1.14378   1.15547   1.16061   1.17179
 Alpha virt. eigenvalues --    1.19219   1.21482   1.21911   1.23530   1.24183
 Alpha virt. eigenvalues --    1.27014   1.28243   1.29668   1.30343   1.30724
 Alpha virt. eigenvalues --    1.31257   1.32970   1.34474   1.34774   1.35629
 Alpha virt. eigenvalues --    1.37299   1.38117   1.38779   1.39770   1.40358
 Alpha virt. eigenvalues --    1.41964   1.43555   1.43751   1.45114   1.45733
 Alpha virt. eigenvalues --    1.45866   1.46428   1.47148   1.48558   1.50321
 Alpha virt. eigenvalues --    1.51196   1.52499   1.53723   1.54485   1.55476
 Alpha virt. eigenvalues --    1.55889   1.56014   1.57271   1.59282   1.60892
 Alpha virt. eigenvalues --    1.62994   1.65294   1.66803   1.67243   1.75047
 Alpha virt. eigenvalues --    1.75450   1.79808   1.79969   1.80351   1.80875
 Alpha virt. eigenvalues --    1.81102   1.81810   1.82519   1.83493   1.84643
 Alpha virt. eigenvalues --    1.85273   1.85777   1.86742   1.87715   1.88040
 Alpha virt. eigenvalues --    1.89496   1.89618   1.90529   1.91320   1.92622
 Alpha virt. eigenvalues --    1.94399   1.94901   1.96072   1.96419   1.96819
 Alpha virt. eigenvalues --    1.98478   2.00250   2.00793   2.01120   2.02129
 Alpha virt. eigenvalues --    2.02365   2.03311   2.05167   2.05201   2.05585
 Alpha virt. eigenvalues --    2.06245   2.07380   2.08232   2.12243   2.13238
 Alpha virt. eigenvalues --    2.13958   2.14990   2.15631   2.16951   2.17896
 Alpha virt. eigenvalues --    2.19904   2.20316   2.22533   2.23526   2.26266
 Alpha virt. eigenvalues --    2.26688   2.28794   2.30144   2.31931   2.34665
 Alpha virt. eigenvalues --    2.35536   2.36639   2.37085   2.37472   2.38290
 Alpha virt. eigenvalues --    2.39037   2.39873   2.41613   2.42399   2.45905
 Alpha virt. eigenvalues --    2.46631   2.47457   2.47867   2.48719   2.50171
 Alpha virt. eigenvalues --    2.50761   2.51138   2.53502   2.53915   2.54497
 Alpha virt. eigenvalues --    2.55127   2.57811   2.58359   2.59660   2.62898
 Alpha virt. eigenvalues --    2.64527   2.64888   2.65596   2.67972   2.69403
 Alpha virt. eigenvalues --    2.71030   2.72106   2.73929   2.74221   2.76389
 Alpha virt. eigenvalues --    2.77785   2.78480   2.80286   2.81740   2.85743
 Alpha virt. eigenvalues --    2.87369   2.88707   2.90423   2.93504   2.98381
 Alpha virt. eigenvalues --    2.99989   3.02498   3.03496   3.06816   3.07527
 Alpha virt. eigenvalues --    3.09262   3.11625   3.12342   3.16720   3.17158
 Alpha virt. eigenvalues --    3.21360   3.32633   3.39416   3.52824   3.55332
 Alpha virt. eigenvalues --    4.02928   4.06973   4.08079   4.12041   4.13088
 Alpha virt. eigenvalues --    4.19107   4.21508   4.23956   4.25294   4.26788
 Alpha virt. eigenvalues --    4.29606   4.35047   4.37550   4.38594   4.41312
 Alpha virt. eigenvalues --    4.43829   4.50737   4.53428   4.58844   4.63301
 Alpha virt. eigenvalues --    4.64412   4.68918   4.81571   4.88911   4.93000
          Condensed to atoms (all electrons):
               1          2          3          4          5          6
     1  C    5.269611   0.492626  -0.071874  -0.048535  -0.062867   0.467395
     2  C    0.492626   4.452223   0.510405  -0.008860  -0.024318   0.004727
     3  C   -0.071874   0.510405   5.134355   0.478675  -0.037611  -0.040905
     4  C   -0.048535  -0.008860   0.478675   5.014608   0.545184  -0.030237
     5  C   -0.062867  -0.024318  -0.037611   0.545184   4.826854   0.513020
     6  C    0.467395   0.004727  -0.040905  -0.030237   0.513020   4.567208
     7  H    0.351089  -0.024734   0.005377   0.000008   0.003136  -0.031422
     8  H    0.004157  -0.034865   0.362729  -0.025484   0.002169   0.000495
     9  H    0.000127   0.002740  -0.032073   0.363099  -0.034217   0.004811
    10  O   -0.046752   0.289840  -0.056347   0.004497   0.000345   0.001598
    11  H    0.004848  -0.028227  -0.002097   0.000645  -0.000039  -0.000061
    12  O   -0.064592   0.004578   0.000066   0.003845  -0.068761   0.310904
    13  H   -0.003136   0.000613  -0.000024  -0.000077   0.006026  -0.028535
    14  C    0.011530  -0.000852   0.007873  -0.069703   0.345403  -0.047183
    15  H    0.000384  -0.000027  -0.000085   0.004529  -0.034863  -0.009893
    16  C   -0.000232   0.000032   0.000047  -0.010282  -0.033375   0.005349
    17  H    0.000013  -0.000009   0.000168   0.004165  -0.007730  -0.000088
    18  C    0.000000   0.000000  -0.000005   0.000388   0.002783  -0.000152
    19  O   -0.000000   0.000000  -0.000000   0.000007   0.001322  -0.000035
    20  C   -0.000000   0.000000   0.000000   0.000003  -0.000026  -0.000001
    21  C    0.000000  -0.000000  -0.000000   0.000006  -0.000020  -0.000000
    22  C    0.000000  -0.000000   0.000000   0.000000  -0.000000   0.000000
    23  C   -0.000000  -0.000000   0.000000  -0.000000   0.000000  -0.000000
    24  H    0.000000  -0.000000   0.000000  -0.000000  -0.000029  -0.000000
    25  C   -0.000000  -0.000000  -0.000000   0.000000  -0.000000   0.000000
    26  C   -0.000000   0.000000  -0.000000  -0.000000   0.000000  -0.000000
    27  H    0.000000  -0.000000   0.000000   0.000000  -0.000000  -0.000000
    28  O   -0.000000   0.000000   0.000000   0.000000   0.000000  -0.000000
    29  H    0.000000  -0.000000  -0.000000   0.000000  -0.000002   0.000000
    30  O    0.000000   0.000000  -0.000000   0.000000  -0.000000   0.000000
    31  H    0.000000   0.000000  -0.000000  -0.000000   0.000000   0.000000
    32  C    0.000000  -0.000000   0.000000   0.000000  -0.000000   0.000000
    33  H    0.000000  -0.000000  -0.000000  -0.000000  -0.000000   0.000000
    34  H   -0.000000   0.000000  -0.000000  -0.000000   0.000000  -0.000000
    35  C   -0.000000   0.000000  -0.000000  -0.000000   0.000000   0.000000
    36  H   -0.000000   0.000000   0.000000  -0.000000   0.000000  -0.000000
    37  C    0.000000   0.000000   0.000000   0.000000   0.000000  -0.000000
    38  C    0.000000   0.000000   0.000000  -0.000000   0.000000   0.000000
    39  H    0.000000   0.000000   0.000000   0.000000  -0.000000   0.000000
    40  H    0.000000   0.000000   0.000000   0.000000   0.000000   0.000000
    41  H    0.000000   0.000000   0.000000  -0.000000   0.000000  -0.000000
    42  C    0.000000   0.000000   0.000000  -0.000000  -0.000000   0.000000
    43  H    0.000000   0.000000   0.000000  -0.000000   0.000000   0.000000
    44  H    0.000000   0.000000   0.000000   0.000000   0.000000   0.000000
    45  H    0.000000   0.000000   0.000000   0.000000  -0.000000   0.000000
               7          8          9         10         11         12
     1  C    0.351089   0.004157   0.000127  -0.046752   0.004848  -0.064592
     2  C   -0.024734  -0.034865   0.002740   0.289840  -0.028227   0.004578
     3  C    0.005377   0.362729  -0.032073  -0.056347  -0.002097   0.000066
     4  C    0.000008  -0.025484   0.363099   0.004497   0.000645   0.003845
     5  C    0.003136   0.002169  -0.034217   0.000345  -0.000039  -0.068761
     6  C   -0.031422   0.000495   0.004811   0.001598  -0.000061   0.310904
     7  H    0.495976  -0.000115   0.000010  -0.000668  -0.000192  -0.004226
     8  H   -0.000115   0.495372  -0.003598  -0.003864   0.004347   0.000001
     9  H    0.000010  -0.003598   0.504213  -0.000052  -0.000006  -0.000043
    10  O   -0.000668  -0.003864  -0.000052   8.225305   0.256457  -0.000011
    11  H   -0.000192   0.004347  -0.000006   0.256457   0.307023   0.000001
    12  O   -0.004226   0.000001  -0.000043  -0.000011   0.000001   8.222917
    13  H    0.004586  -0.000000   0.000004  -0.000005   0.000000   0.257302
    14  C   -0.000094  -0.000131  -0.011055   0.000001  -0.000001  -0.004088
    15  H   -0.000001   0.000001  -0.000010   0.000000  -0.000000   0.010098
    16  C    0.000001   0.000003   0.005214   0.000000   0.000000   0.000659
    17  H    0.000000   0.000004   0.003118   0.000000   0.000000  -0.000001
    18  C   -0.000000   0.000000   0.000095   0.000000   0.000000  -0.000017
    19  O    0.000000  -0.000000   0.000002   0.000000   0.000000  -0.000000
    20  C    0.000000  -0.000000   0.000013  -0.000000  -0.000000   0.000000
    21  C    0.000000   0.000000  -0.000018   0.000000   0.000000  -0.000000
    22  C   -0.000000  -0.000000  -0.000000  -0.000000  -0.000000  -0.000000
    23  C    0.000000   0.000000   0.000000   0.000000   0.000000   0.000000
    24  H    0.000000   0.000000  -0.000024  -0.000000  -0.000000  -0.000000
    25  C    0.000000   0.000000   0.000000   0.000000   0.000000  -0.000000
    26  C   -0.000000  -0.000000   0.000000   0.000000  -0.000000   0.000000
    27  H    0.000000   0.000000  -0.000000   0.000000   0.000000   0.000000
    28  O   -0.000000  -0.000000   0.000000   0.000000   0.000000   0.000000
    29  H   -0.000000   0.000000  -0.000000  -0.000000  -0.000000  -0.000000
    30  O    0.000000   0.000000  -0.000000   0.000000   0.000000   0.000000
    31  H    0.000000  -0.000000   0.000000   0.000000   0.000000   0.000000
    32  C   -0.000000   0.000000  -0.000000   0.000000   0.000000   0.000000
    33  H   -0.000000   0.000000  -0.000000   0.000000   0.000000  -0.000000
    34  H    0.000000  -0.000000   0.000000   0.000000   0.000000   0.000000
    35  C    0.000000   0.000000  -0.000000   0.000000   0.000000  -0.000000
    36  H    0.000000  -0.000000  -0.000000   0.000000   0.000000   0.000000
    37  C    0.000000   0.000000   0.000000   0.000000   0.000000   0.000000
    38  C    0.000000   0.000000  -0.000000   0.000000   0.000000   0.000000
    39  H    0.000000   0.000000  -0.000000   0.000000   0.000000   0.000000
    40  H    0.000000   0.000000   0.000000   0.000000   0.000000   0.000000
    41  H    0.000000   0.000000  -0.000000   0.000000   0.000000   0.000000
    42  C    0.000000   0.000000   0.000000   0.000000   0.000000   0.000000
    43  H    0.000000   0.000000   0.000000   0.000000   0.000000   0.000000
    44  H    0.000000   0.000000   0.000000   0.000000   0.000000   0.000000
    45  H    0.000000   0.000000  -0.000000   0.000000   0.000000   0.000000
              13         14         15         16         17         18
     1  C   -0.003136   0.011530   0.000384  -0.000232   0.000013   0.000000
     2  C    0.000613  -0.000852  -0.000027   0.000032  -0.000009   0.000000
     3  C   -0.000024   0.007873  -0.000085   0.000047   0.000168  -0.000005
     4  C   -0.000077  -0.069703   0.004529  -0.010282   0.004165   0.000388
     5  C    0.006026   0.345403  -0.034863  -0.033375  -0.007730   0.002783
     6  C   -0.028535  -0.047183  -0.009893   0.005349  -0.000088  -0.000152
     7  H    0.004586  -0.000094  -0.000001   0.000001   0.000000  -0.000000
     8  H   -0.000000  -0.000131   0.000001   0.000003   0.000004   0.000000
     9  H    0.000004  -0.011055  -0.000010   0.005214   0.003118   0.000095
    10  O   -0.000005   0.000001   0.000000   0.000000   0.000000   0.000000
    11  H    0.000000  -0.000001  -0.000000   0.000000   0.000000   0.000000
    12  O    0.257302  -0.004088   0.010098   0.000659  -0.000001  -0.000017
    13  H    0.303955  -0.000255  -0.000270  -0.000001   0.000000  -0.000000
    14  C   -0.000255   5.072218   0.370227   0.515789  -0.037617  -0.010214
    15  H   -0.000270   0.370227   0.499642  -0.062089   0.004185  -0.006084
    16  C   -0.000001   0.515789  -0.062089   5.279312   0.356613   0.383100
    17  H    0.000000  -0.037617   0.004185   0.356613   0.510452  -0.025207
    18  C   -0.000000  -0.010214  -0.006084   0.383100  -0.025207   4.493181
    19  O    0.000000   0.002701   0.018266  -0.105670   0.002318   0.480103
    20  C    0.000000   0.010247   0.001076  -0.095185  -0.007533   0.343143
    21  C   -0.000000   0.000273  -0.000020  -0.002688   0.003494  -0.047783
    22  C    0.000000  -0.000207  -0.000005   0.006301  -0.000141  -0.031350
    23  C    0.000000  -0.000011   0.000000   0.000434   0.000573   0.004512
    24  H    0.000000   0.000414  -0.000001   0.003564   0.004101  -0.008709
    25  C    0.000000  -0.000000  -0.000000  -0.000140   0.000011   0.005408
    26  C    0.000000   0.000001   0.000000  -0.000023  -0.000011   0.000216
    27  H   -0.000000  -0.000000  -0.000000   0.000010  -0.000002  -0.000097
    28  O    0.000000   0.000017   0.000010  -0.000159   0.000003  -0.001343
    29  H   -0.000000  -0.000093  -0.000082   0.002389  -0.000054  -0.005224
    30  O    0.000000  -0.000000   0.000000  -0.000000   0.000000  -0.000000
    31  H   -0.000000   0.000000  -0.000000   0.000000  -0.000000  -0.000000
    32  C   -0.000000  -0.000000  -0.000000   0.000001   0.000000  -0.000134
    33  H    0.000000  -0.000000  -0.000000   0.000000  -0.000000   0.000010
    34  H    0.000000  -0.000000  -0.000000  -0.000000  -0.000000   0.000003
    35  C    0.000000  -0.000000  -0.000000  -0.000000  -0.000000   0.000002
    36  H    0.000000   0.000000  -0.000000  -0.000000  -0.000000   0.000000
    37  C    0.000000   0.000000  -0.000000  -0.000000  -0.000000  -0.000000
    38  C    0.000000   0.000000  -0.000000   0.000000   0.000000   0.000000
    39  H    0.000000  -0.000000  -0.000000   0.000000  -0.000000  -0.000000
    40  H    0.000000   0.000000   0.000000  -0.000000  -0.000000   0.000000
    41  H    0.000000   0.000000  -0.000000  -0.000000   0.000000   0.000000
    42  C    0.000000  -0.000000   0.000000  -0.000000  -0.000000   0.000000
    43  H    0.000000  -0.000000  -0.000000  -0.000000  -0.000000   0.000000
    44  H    0.000000   0.000000   0.000000  -0.000000   0.000000   0.000000
    45  H    0.000000  -0.000000  -0.000000   0.000000  -0.000000  -0.000000
              19         20         21         22         23         24
     1  C   -0.000000  -0.000000   0.000000   0.000000  -0.000000   0.000000
     2  C    0.000000   0.000000  -0.000000  -0.000000  -0.000000  -0.000000
     3  C   -0.000000   0.000000  -0.000000   0.000000   0.000000   0.000000
     4  C    0.000007   0.000003   0.000006   0.000000  -0.000000  -0.000000
     5  C    0.001322  -0.000026  -0.000020  -0.000000   0.000000  -0.000029
     6  C   -0.000035  -0.000001  -0.000000   0.000000  -0.000000  -0.000000
     7  H    0.000000   0.000000   0.000000  -0.000000   0.000000   0.000000
     8  H   -0.000000  -0.000000   0.000000  -0.000000   0.000000   0.000000
     9  H    0.000002   0.000013  -0.000018  -0.000000   0.000000  -0.000024
    10  O    0.000000  -0.000000   0.000000  -0.000000   0.000000  -0.000000
    11  H    0.000000  -0.000000   0.000000  -0.000000   0.000000  -0.000000
    12  O   -0.000000   0.000000  -0.000000  -0.000000   0.000000  -0.000000
    13  H    0.000000   0.000000  -0.000000   0.000000   0.000000   0.000000
    14  C    0.002701   0.010247   0.000273  -0.000207  -0.000011   0.000414
    15  H    0.018266   0.001076  -0.000020  -0.000005   0.000000  -0.000001
    16  C   -0.105670  -0.095185  -0.002688   0.006301   0.000434   0.003564
    17  H    0.002318  -0.007533   0.003494  -0.000141   0.000573   0.004101
    18  C    0.480103   0.343143  -0.047783  -0.031350   0.004512  -0.008709
    19  O    8.248225  -0.079175   0.004022  -0.001269  -0.000023  -0.000004
    20  C   -0.079175   5.189304   0.490153   0.414908  -0.031728  -0.032738
    21  C    0.004022   0.490153   4.998735  -0.036405   0.530942   0.361290
    22  C   -0.001269   0.414908  -0.036405   4.663461  -0.039577   0.002674
    23  C   -0.000023  -0.031728   0.530942  -0.039577   5.041647  -0.030742
    24  H   -0.000004  -0.032738   0.361290   0.002674  -0.030742   0.499270
    25  C    0.000742  -0.067957  -0.028685   0.482088  -0.068407   0.000481
    26  C   -0.000023  -0.035188  -0.024375   0.004436   0.518200   0.003182
    27  H    0.000000   0.002275  -0.029954   0.000395   0.359871  -0.003794
    28  O   -0.049127  -0.071837   0.003938   0.342844   0.000080  -0.000041
    29  H    0.085860  -0.017815  -0.000002  -0.018984  -0.000011  -0.000000
    30  O   -0.000000   0.000174   0.003413   0.004297  -0.058164  -0.000064
    31  H    0.000000  -0.000015  -0.000196   0.000182   0.004686   0.000003
    32  C    0.000002   0.007400  -0.000123  -0.040324   0.005934   0.000007
    33  H    0.000011   0.000609  -0.000032  -0.008263  -0.000106   0.000000
    34  H   -0.000000  -0.000093   0.000005  -0.000569  -0.000042   0.000000
    35  C    0.000000  -0.000082   0.000001   0.001054  -0.000100  -0.000000
    36  H    0.000000   0.000006  -0.000013   0.000326  -0.000036   0.000000
    37  C   -0.000000   0.000002  -0.000000  -0.000130   0.000002  -0.000000
    38  C    0.000000   0.000000  -0.000000  -0.000014   0.000000   0.000000
    39  H    0.000000   0.000000   0.000000   0.000000  -0.000000   0.000000
    40  H   -0.000000  -0.000000  -0.000000   0.000000   0.000000  -0.000000
    41  H   -0.000000   0.000000  -0.000000  -0.000006   0.000001   0.000000
    42  C   -0.000000  -0.000000   0.000000   0.000003  -0.000000   0.000000
    43  H    0.000000  -0.000000  -0.000000  -0.000000  -0.000000   0.000000
    44  H   -0.000000   0.000000  -0.000000  -0.000000   0.000000  -0.000000
    45  H    0.000000   0.000000  -0.000000  -0.000000   0.000000   0.000000
              25         26         27         28         29         30
     1  C   -0.000000  -0.000000   0.000000  -0.000000   0.000000   0.000000
     2  C   -0.000000   0.000000  -0.000000   0.000000  -0.000000   0.000000
     3  C   -0.000000  -0.000000   0.000000   0.000000  -0.000000  -0.000000
     4  C    0.000000  -0.000000   0.000000   0.000000   0.000000   0.000000
     5  C   -0.000000   0.000000  -0.000000   0.000000  -0.000002  -0.000000
     6  C    0.000000  -0.000000  -0.000000  -0.000000   0.000000   0.000000
     7  H    0.000000  -0.000000   0.000000  -0.000000  -0.000000   0.000000
     8  H    0.000000  -0.000000   0.000000  -0.000000   0.000000   0.000000
     9  H    0.000000   0.000000  -0.000000   0.000000  -0.000000  -0.000000
    10  O    0.000000   0.000000   0.000000   0.000000  -0.000000   0.000000
    11  H    0.000000  -0.000000   0.000000   0.000000  -0.000000   0.000000
    12  O   -0.000000   0.000000   0.000000   0.000000  -0.000000   0.000000
    13  H    0.000000   0.000000  -0.000000   0.000000  -0.000000   0.000000
    14  C   -0.000000   0.000001  -0.000000   0.000017  -0.000093  -0.000000
    15  H   -0.000000   0.000000  -0.000000   0.000010  -0.000082   0.000000
    16  C   -0.000140  -0.000023   0.000010  -0.000159   0.002389  -0.000000
    17  H    0.000011  -0.000011  -0.000002   0.000003  -0.000054   0.000000
    18  C    0.005408   0.000216  -0.000097  -0.001343  -0.005224  -0.000000
    19  O    0.000742  -0.000023   0.000000  -0.049127   0.085860  -0.000000
    20  C   -0.067957  -0.035188   0.002275  -0.071837  -0.017815   0.000174
    21  C   -0.028685  -0.024375  -0.029954   0.003938  -0.000002   0.003413
    22  C    0.482088   0.004436   0.000395   0.342844  -0.018984   0.004297
    23  C   -0.068407   0.518200   0.359871   0.000080  -0.000011  -0.058164
    24  H    0.000481   0.003182  -0.003794  -0.000041  -0.000000  -0.000064
    25  C    5.103047   0.497082   0.005040  -0.066730   0.004464  -0.065812
    26  C    0.497082   4.527441  -0.031242   0.002494  -0.000042   0.316216
    27  H    0.005040  -0.031242   0.506858   0.000002   0.000000   0.000140
    28  O   -0.066730   0.002494   0.000002   8.313062   0.208158  -0.000011
    29  H    0.004464  -0.000042   0.000000   0.208158   0.274136   0.000001
    30  O   -0.065812   0.316216   0.000140  -0.000011   0.000001   8.275633
    31  H   -0.012141  -0.021789  -0.000084  -0.000003   0.000000   0.221457
    32  C    0.302865  -0.067927  -0.000119  -0.008950   0.000167  -0.001463
    33  H   -0.036783   0.003645   0.000001   0.012060   0.000050   0.000089
    34  H   -0.034758  -0.003054   0.000001   0.000441  -0.000004   0.001326
    35  C   -0.041546  -0.001898   0.000003   0.000166  -0.000005  -0.013551
    36  H    0.001466   0.000049   0.000001   0.000013  -0.000000  -0.000178
    37  C   -0.000679   0.000940   0.000001  -0.000001  -0.000000  -0.005614
    38  C    0.000194   0.000156  -0.000000   0.000000   0.000000   0.000180
    39  H    0.000022  -0.000012  -0.000000   0.000000  -0.000000   0.000184
    40  H   -0.000017   0.000000   0.000000  -0.000000   0.000000  -0.000004
    41  H   -0.000236   0.000050  -0.000000   0.000000  -0.000000   0.000207
    42  C   -0.000033  -0.000071   0.000000   0.000000  -0.000000  -0.000001
    43  H   -0.000004  -0.000001   0.000000  -0.000000  -0.000000   0.000002
    44  H   -0.000005   0.000001   0.000000  -0.000000   0.000000  -0.000003
    45  H    0.000010   0.000001  -0.000000  -0.000000  -0.000000   0.000072
              31         32         33         34         35         36
     1  C    0.000000   0.000000   0.000000  -0.000000  -0.000000  -0.000000
     2  C    0.000000  -0.000000  -0.000000   0.000000   0.000000   0.000000
     3  C   -0.000000   0.000000  -0.000000  -0.000000  -0.000000   0.000000
     4  C   -0.000000   0.000000  -0.000000  -0.000000  -0.000000  -0.000000
     5  C    0.000000  -0.000000  -0.000000   0.000000   0.000000   0.000000
     6  C    0.000000   0.000000   0.000000  -0.000000   0.000000  -0.000000
     7  H    0.000000  -0.000000  -0.000000   0.000000   0.000000   0.000000
     8  H   -0.000000   0.000000   0.000000  -0.000000   0.000000  -0.000000
     9  H    0.000000  -0.000000  -0.000000   0.000000  -0.000000  -0.000000
    10  O    0.000000   0.000000   0.000000   0.000000   0.000000   0.000000
    11  H    0.000000   0.000000   0.000000   0.000000   0.000000   0.000000
    12  O    0.000000   0.000000  -0.000000   0.000000  -0.000000   0.000000
    13  H   -0.000000  -0.000000   0.000000   0.000000   0.000000   0.000000
    14  C    0.000000  -0.000000  -0.000000  -0.000000  -0.000000   0.000000
    15  H   -0.000000  -0.000000  -0.000000  -0.000000  -0.000000  -0.000000
    16  C    0.000000   0.000001   0.000000  -0.000000  -0.000000  -0.000000
    17  H   -0.000000   0.000000  -0.000000  -0.000000  -0.000000  -0.000000
[...]
 0.00000045,0.,-0.00000107,0.00000112,-0.00000006,0.00000172,-0.0000009
 9,0.00000018,-0.00001746,0.00000641,-0.00000102,0.00000108,-0.00000180
 ,0.00000020,0.00000031,-0.00001505,0.00000119,0.00000052,0.00000191,-0
 .00000011,0.00004300,0.00001264,0.00000214,0.00000408,0.00000113,-0.00
 000059,-0.00008440,-0.00002003,-0.00000211,0.00000332,0.00000278,0.000
 00023,0.00015504,0.00007795,0.00001291,-0.00010030,-0.00003706,-0.0000
 0632,-0.00015087,-0.00007014,-0.00003543,-0.00004188,0.00005181,0.0000
 0556,0.00002871,0.00019894,0.00003436,-0.00000085,0.00005928,0.0000392
 9,-0.00000931,0.00000828,-0.00000544,0.00013851,-0.00025352,0.00011508
 ,-0.00010670,-0.00035253,-0.00015671,-0.00002095,0.00002248,0.00000236
 ,-0.00024283,-0.00013934,-0.00002488,0.00009466,0.00006623,0.00000843,
 0.00006784,0.00049414,0.00004762,-0.00034177,-0.00072823,0.00004597,-0
 .00040624,-0.00337242,-0.00294120,-0.00103936,-0.00046853,0.00100936,-
 0.00003575,0.00006420,0.00016999,-0.02515624,-0.01253724,0.02653053,-0
 .00036294,0.00147457,0.00260059,-0.12789178,-0.02445592,0.05419874,0.0
 1122608,0.00376654,-0.01112382,0.00021832,0.00014734,-0.00029871,0.000
 20215,0.00008670,-0.00019525,-0.00136354,0.00037509,-0.00460662,0.5551
 3522,-0.00000051,0.00000073,-0.00000002,0.00000562,0.00000093,0.000000
 06,-0.00000558,-0.00000124,0.00000004,0.00000202,-0.00000522,0.0000003
 1,-0.00000918,0.00000229,-0.00000107,0.00000167,0.00000781,-0.00000051
 ,-0.00000042,-0.00000014,0.,-0.00000037,0.00000038,-0.00000002,0.00000
 065,-0.00000043,0.00000008,-0.00000578,0.00000210,-0.00000033,0.000000
 37,-0.00000058,0.00000006,0.00000007,-0.00000520,0.00000039,0.00000014
 ,0.00000069,-0.00000004,0.00001042,0.00000577,0.00000068,0.00000063,-0
 .00000003,0.00000003,-0.00003401,-0.00001904,0.00000170,0.00000448,0.0
 0000056,0.00000046,0.00001914,0.00007419,0.00000102,0.00000844,-0.0000
 3104,-0.00000274,-0.00005472,-0.00007880,-0.00014070,-0.00007411,-0.00
 000078,0.00001487,-0.00024059,0.00075467,0.00011664,0.00010089,0.00000
 104,-0.00011863,0.00000098,0.00000364,0.00001564,-0.00166037,-0.001098
 36,0.00160603,-0.00048591,-0.00035209,-0.00001181,-0.00000782,0.000012
 10,-0.00000084,0.00024048,-0.00018590,0.00007331,0.00001115,-0.0000304
 9,-0.00000278,0.00052056,-0.00010192,-0.00006068,-0.00050830,0.0006912
 8,0.00021623,-0.00299552,0.01314567,0.00190057,0.00188396,0.00050878,-
 0.00199687,-0.00017900,-0.00022727,0.00015643,-0.00829512,0.00191382,0
 .00750598,0.00240104,-0.00722666,-0.00106782,-0.02561873,-0.08982927,0
 .03263292,-0.00148868,0.00200842,0.00369639,0.00014656,0.00048015,-0.0
 0049900,-0.00054475,0.00015648,-0.00018323,0.00011708,0.00106759,-0.00
 023521,-0.00809718,0.54613392,-0.00000208,0.00000463,-0.00000046,0.000
 02725,0.00000444,0.00000036,-0.00002722,-0.00000599,0.00000016,0.00000
 947,-0.00002630,0.00000145,-0.00004352,0.00001809,-0.00000290,0.000010
 26,0.00003602,-0.00000206,-0.00000177,-0.00000072,-0.00000002,-0.00000
 171,0.00000179,-0.00000009,0.00000274,-0.00000155,0.00000028,-0.000027
 96,0.00001025,-0.00000163,0.00000172,-0.00000288,0.00000031,0.00000055
 ,-0.00002429,0.00000193,0.00000082,0.00000308,-0.00000018,0.00007035,0
 .00001934,0.00000376,0.00000593,0.00000156,-0.00000099,-0.00013420,-0.
 00003352,-0.00000427,0.00000615,0.00000386,0.00000052,0.00027674,0.000
 16629,0.00002741,-0.00011968,-0.00010263,-0.00001179,-0.00026347,-0.00
 017197,-0.00009302,-0.00002932,0.00015856,0.00001458,0.00005788,0.0005
 2298,0.00004693,-0.00018760,-0.00001498,-0.00007699,-0.00002434,0.0000
 0450,0.00000933,-0.00023856,-0.00070173,0.00077177,0.00022604,0.000054
 19,-0.00004931,-0.00001316,0.00002811,0.00000489,-0.00015841,-0.000291
 89,0.00001136,0.00010202,0.00005589,0.00000278,-0.00049974,0.00028625,
 0.00035160,0.00052874,-0.00055842,-0.00063169,-0.00328081,0.00154515,0
 .00037254,0.00020243,0.00008500,-0.00006420,-0.00021022,0.00002896,0.0
 0009132,0.00256279,0.00134473,0.00375622,-0.00197803,-0.00232174,0.001
 00852,0.05877378,0.03386312,-0.16788169,0.01589013,0.00984253,-0.02808
 039,0.00116522,0.00020669,0.00087706,0.00080393,0.00009741,0.00086882,
 -0.00250973,0.00055150,-0.00406403,0.05191092,0.01184591,0.55641266,0.
 00000023,-0.00000049,0.00000007,-0.00000290,-0.00000045,-0.00000005,0.
 00000286,0.00000064,0.,-0.00000100,0.00000273,-0.00000015,0.00000452,-
 0.00000191,0.00000028,-0.00000109,-0.00000372,0.00000019,0.00000019,0.
 00000008,0.,0.00000018,-0.00000019,0.,-0.00000028,0.00000017,-0.000000
 04,0.00000297,-0.00000108,0.00000019,-0.00000019,0.00000030,-0.0000000
 5,-0.00000004,0.00000252,-0.00000018,-0.00000009,-0.00000033,0.,-0.000
 00729,-0.00000199,-0.00000034,-0.00000063,-0.00000018,0.00000011,0.000
 01383,0.00000337,0.00000053,-0.00000058,-0.00000040,-0.00000009,-0.000
 02700,-0.00001479,-0.00000301,0.00001368,0.00000844,0.00000115,0.00002
 551,0.00001554,0.00000461,0.00000458,-0.00001317,-0.00000053,-0.000004
 21,-0.00004154,0.00000143,0.00001239,-0.00000329,-0.00000327,0.0000019
 8,-0.00000095,0.00000022,-0.00001101,0.00007232,-0.00004785,0.00000640
 ,0.00002455,0.00001501,0.00000265,-0.00000320,-0.00000042,0.00002364,0
 .00002336,0.00000191,-0.00001232,-0.00000711,-0.00000147,0.00001803,-0
 .00003378,-0.00001945,-0.00002016,0.00004019,0.00002622,0.00020096,0.0
 0011257,-0.00017635,0.00004091,0.00001729,-0.00001983,0.00010963,0.000
 01959,0.00001027,0.00082786,-0.00007253,0.00192159,-0.00074014,-0.0002
 6818,-0.00004234,0.01076142,-0.00042920,0.01769876,-0.00188983,-0.0011
 8933,0.00235987,-0.00015632,0.00005826,-0.00003376,0.00004619,-0.00015
 102,0.00007030,0.00040511,-0.00020941,0.00091618,-0.12375161,0.0053680
 2,-0.12280946,0.13185029,-0.00000002,0.00000004,0.,0.00000052,0.000000
 14,0.,-0.00000052,-0.00000014,0.,0.00000020,-0.00000045,0.00000002,-0.
 00000085,0.00000033,-0.00000004,0.00000019,0.00000084,-0.00000005,-0.0
 0000004,-0.00000002,0.,-0.00000002,0.00000003,0.,0.00000003,-0.0000000
 2,0.,-0.00000053,0.00000017,-0.00000003,0.00000004,-0.00000004,0.,0.00
 000003,-0.00000063,0.00000004,0.00000001,0.00000009,0.,0.00000145,0.00
 000029,0.00000005,0.00000010,0.00000004,-0.00000002,-0.00000235,-0.000
 00034,-0.00000010,0.00000006,0.00000005,0.,0.00000706,0.00000360,0.000
 00077,-0.00000229,-0.00000312,-0.00000040,-0.00000706,-0.00000193,0.00
 000067,0.00000196,0.00000312,0.00000032,0.00001520,-0.00000183,0.00000
 331,-0.00000832,-0.00000083,-0.00000106,-0.00000068,-0.00000014,0.0000
 0011,0.00001708,0.00001702,-0.00002478,0.00003918,0.00001676,0.0000011
 3,0.00000021,0.00000014,0.00000005,-0.00000649,-0.00000666,-0.00000128
 ,0.00000121,0.00000171,-0.00000039,-0.00004051,0.00001392,0.00002101,0
 .00000757,-0.00006352,-0.00003401,0.00006140,-0.00019555,-0.00018988,-
 0.00003339,-0.00001156,0.00004575,0.00006752,0.00002344,-0.00004359,0.
 00069557,-0.00015981,0.00024768,-0.00050835,0.00018848,-0.00007691,0.0
 0615080,-0.00169048,0.00829419,-0.00181095,0.00036853,0.00136831,0.000
 28539,0.00025213,0.00025874,-0.00034185,0.00014753,-0.00042681,0.00018
 293,0.00045048,0.00062725,0.00469105,-0.05026180,0.00830842,-0.0039054
 2,0.04769214,0.00000036,-0.00000085,0.00000011,-0.00000476,-0.00000078
 ,-0.00000009,0.00000482,0.00000104,0.,-0.00000165,0.00000474,-0.000000
 25,0.00000776,-0.00000330,0.00000051,-0.00000182,-0.00000635,0.0000003
 4,0.00000031,0.00000012,0.,0.00000031,-0.00000032,0.,-0.00000049,0.000
 00026,-0.00000008,0.00000490,-0.00000181,0.00000032,-0.00000028,0.0000
 0051,-0.00000008,-0.00000012,0.00000425,-0.00000029,-0.00000014,-0.000
 00052,-0.00000001,-0.00001277,-0.00000342,-0.00000070,-0.00000109,-0.0
 0000028,0.00000016,0.00002394,0.00000550,0.00000091,-0.00000098,-0.000
 00074,-0.00000009,-0.00005258,-0.00002940,-0.00000488,0.00002273,0.000
 01896,0.00000244,0.00005112,0.00002490,0.00001027,0.00000475,-0.000027
 08,-0.00000155,-0.00003755,-0.00007381,-0.00001242,0.00003760,0.000004
 77,0.00001403,0.00000487,-0.00000048,-0.00000208,0.00003274,0.00005472
 ,-0.00006644,-0.00009316,-0.00003151,-0.00000117,0.00000158,-0.0000046
 8,-0.00000118,0.00003907,0.00005629,-0.00000052,-0.00001916,-0.0000118
 6,0.00000019,0.00014197,-0.00009894,-0.00006720,-0.00012570,0.00024944
 ,0.00008368,0.00022982,0.00007975,0.00046045,0.00004776,-0.00001084,-0
 .00007362,-0.00015204,-0.00009544,0.00016337,-0.00201664,-0.00110811,0
 .00117515,0.00112918,0.00030325,0.00056840,-0.01483397,0.00011432,-0.0
 2076839,0.00463495,0.00173760,-0.00285347,0.00013946,-0.00007033,0.000
 46029,-0.00007035,0.00007227,0.00029960,-0.00078020,0.00024007,-0.0013
 9279,-0.11961619,0.00905052,-0.24928128,0.12997799,-0.01118617,0.27021
 258,-0.00000114,0.00000259,-0.00000027,0.00001524,0.00000246,0.0000002
 0,-0.00001511,-0.00000337,0.00000010,0.00000529,-0.00001451,0.00000079
 ,-0.00002397,0.00001031,-0.00000145,0.00000582,0.00001989,-0.00000113,
 -0.00000097,-0.00000041,0.,-0.00000092,0.00000099,-0.00000005,0.000001
 48,-0.00000085,0.00000014,-0.00001561,0.00000570,-0.00000090,0.0000009
 9,-0.00000160,0.00000017,0.00000028,-0.00001350,0.00000108,0.00000047,
 0.00000174,-0.00000010,0.00003970,0.00001019,0.00000206,0.00000342,0.0
 0000096,-0.00000062,-0.00007253,-0.00001554,-0.00000285,0.00000266,0.0
 0000218,0.00000013,0.00015858,0.00007978,0.00001524,-0.00007485,-0.000
 05139,-0.00000630,-0.00014480,-0.00007691,-0.00001402,-0.00000504,0.00
 008388,0.00000420,0.00010152,0.00013115,0.00000971,-0.00011132,0.00000
 228,-0.00000048,-0.00001352,0.00000287,-0.00000027,0.00025425,-0.00010
 752,-0.00002992,0.00020957,0.00003754,-0.00004039,-0.00000835,0.000014
 62,0.00000272,-0.00015533,-0.00012937,-0.00001641,0.00006178,0.0000430
 6,0.00000336,-0.00034821,0.00024123,0.00018902,0.00032874,-0.00059901,
 -0.00033957,-0.00004347,-0.00207638,-0.00062688,-0.00039259,-0.0000903
 0,0.00050796,0.00002609,0.00005272,0.00009446,-0.00022503,0.00010035,0
 .00304780,-0.00015328,0.00101277,0.00035490,-0.01805530,0.01033507,0.0
 0272801,0.00039378,-0.00006173,-0.00104327,0.00007555,-0.00002739,0.00
 000192,0.00047109,-0.00012989,0.00047060,0.00003781,-0.00038265,-0.000
 09488,-0.20341171,0.13092042,0.02149613,-0.01156019,0.00961666,0.00305
 003,0.22184583,-0.00000002,0.00000012,-0.00000002,0.00000049,0.0000001
 2,0.00000001,-0.00000059,-0.00000010,0.,0.00000016,-0.00000067,0.00000
 003,-0.00000104,0.00000054,-0.00000003,0.00000023,0.00000085,-0.000000
 04,-0.00000004,0.,0.,-0.00000005,0.00000004,0.,0.00000006,-0.00000002,
 0.00000001,-0.00000052,0.00000021,-0.00000004,0.,-0.00000006,0.0000000
 1,0.00000005,-0.00000056,0.00000004,0.,0.00000005,0.,0.00000201,0.0000
 0043,0.00000010,0.00000021,0.00000008,-0.00000004,-0.00000296,0.000000
 11,-0.00000041,-0.00000015,0.00000014,0.,0.00001103,0.00000142,0.00000
 129,-0.00000656,-0.00000218,-0.00000038,-0.00000808,-0.00000292,0.0000
 0866,0.00000568,0.00000985,-0.00000086,0.00001760,-0.00004474,-0.00001
 050,-0.00002534,-0.00000438,0.00000739,-0.00000158,-0.00000023,-0.0000
 0095,0.00012325,0.00003994,-0.00010148,0.00006416,0.00004714,0.0000019
 2,0.00000062,-0.00000011,0.00000025,-0.00003067,0.00000662,-0.00000641
 ,0.00000281,0.00000568,0.00000071,-0.00011501,0.00004617,0.00003278,0.
 00009903,-0.00011606,-0.00004590,0.00001805,-0.00122094,-0.00020373,-0
 .00021029,-0.00009457,0.00015662,0.00002460,0.00003859,-0.00004334,-0.
 00086508,-0.00028004,0.00094461,-0.00021338,0.00050015,0.00013125,-0.0
 1060418,0.00882816,0.00192534,0.00001493,0.00027010,-0.00046129,0.0000
 9102,-0.00007836,0.00002767,0.00011080,-0.00003972,-0.00006553,-0.0001
 1936,0.00001808,-0.00020193,0.12936369,-0.15149783,-0.01851646,-0.0012
 3586,-0.00023136,0.00024655,-0.14066691,0.16268570,0.00000098,-0.00000
 226,0.00000022,-0.00001292,-0.00000205,-0.00000017,0.00001285,0.000002
 83,-0.00000009,-0.00000445,0.00001243,-0.00000068,0.00002040,-0.000008
 89,0.00000126,-0.00000497,-0.00001678,0.00000096,0.00000082,0.00000035
 ,0.00000001,0.00000080,-0.00000084,0.00000005,-0.00000127,0.00000072,-
 0.00000012,0.00001325,-0.00000487,0.00000076,-0.00000082,0.00000137,-0
 .00000014,-0.00000024,0.00001133,-0.00000093,-0.00000041,-0.00000143,0
 .00000010,-0.00003402,-0.00000869,-0.00000176,-0.00000299,-0.00000083,
 0.00000053,0.00006183,0.00001264,0.00000217,-0.00000210,-0.00000194,-0
 .00000008,-0.00013690,-0.00006494,-0.00001294,0.00006724,0.00004200,0.
 00000547,0.00012385,0.00005898,0.00001423,0.00000478,-0.00007037,-0.00
 000375,-0.00010045,-0.00008288,-0.00000634,0.00009876,-0.00000132,0.00
 000616,0.00001178,-0.00000227,-0.00000097,-0.00021462,0.00005599,-0.00
 002335,-0.00021660,-0.00004985,0.00002783,0.00000586,-0.00001196,-0.00
 000231,0.00015530,0.00010862,0.00000875,-0.00005553,-0.00004098,-0.000
 00140,0.00037983,-0.00029535,-0.00018116,-0.00026646,0.00064510,0.0002
 8363,0.00017236,0.00208822,0.00081998,0.00046571,0.00007972,-0.0004762
 9,-0.00002373,-0.00012086,-0.00002314,0.00045940,0.00003817,-0.0025559
 1,0.00030343,-0.00036080,0.00003922,0.02025889,-0.01675383,-0.00251075
 ,0.00004815,-0.00020278,0.00082049,0.00002125,0.00000947,0.00000745,-0
 .00023196,0.00035726,-0.00064158,-0.00009935,0.00022480,0.00038221,0.0
 2274011,-0.01930813,-0.05403448,-0.02107624,0.01871539,0.00503248,-0.0
 2806756,0.01920471,0.05423447,-0.00000101,0.00000220,-0.00000020,0.000
 01271,0.00000199,0.00000017,-0.00001267,-0.00000277,0.00000008,0.00000
 439,-0.00001227,0.00000068,-0.00002021,0.00000835,-0.00000139,0.000004
 75,0.00001658,-0.00000096,-0.00000082,-0.00000033,-0.00000001,-0.00000
 081,0.00000084,-0.00000005,0.00000130,-0.00000075,0.00000013,-0.000013
 05,0.00000481,-0.00000075,0.00000080,-0.00000136,0.00000014,0.00000022
 ,-0.00001110,0.00000089,0.00000039,0.00000140,-0.00000009,0.00003220,0
 .00000925,0.00000172,0.00000277,0.00000071,-0.00000044,-0.00006321,-0.
 00001671,-0.00000149,0.00000316,0.00000186,0.00000022,0.00012162,0.000
 07672,0.00001076,-0.00005635,-0.00004355,-0.00000526,-0.00011873,-0.00
 007174,-0.00004823,-0.00002858,0.00005812,0.00000661,0.00002041,0.0002
 9784,0.00004182,-0.00004523,0.00000753,-0.00003200,-0.00000966,0.00000
 331,0.00000441,-0.00020299,-0.00035431,0.00043022,-0.00002443,-0.00011
 463,-0.00004535,-0.00000970,0.00001531,0.00000139,-0.00006457,-0.00014
 814,0.00000996,0.00005322,0.00002634,0.00000111,-0.00005000,0.00020669
 ,0.00009010,0.00006320,-0.00031557,-0.00011295,-0.00100632,0.00171705,
 0.00022277,0.00017905,0.00006632,-0.00018732,-0.00005584,0.00000363,0.
 00011075,-0.00019062,-0.00095296,0.00275064,0.00036146,-0.00108763,-0.
 00001702,-0.01138599,-0.01910811,-0.00300364,0.00013284,0.00057942,-0.
 00096472,0.00045917,0.00016317,0.00030970,0.00009985,0.00007687,-0.000
 02359,-0.00010479,0.00031010,-0.00004049,-0.08276584,-0.09145813,-0.02
 157100,-0.00618913,-0.01517384,-0.00176639,0.01079323,0.02415719,0.005
 12597,0.09007380,-0.00000100,0.00000224,-0.00000021,0.00001283,0.00000
 198,0.00000017,-0.00001268,-0.00000281,0.00000009,0.00000444,-0.000012
 22,0.00000068,-0.00002008,0.00000858,-0.00000129,0.00000487,0.00001644
 ,-0.00000095,-0.00000081,-0.00000034,-0.00000001,-0.00000079,0.0000008
 4,-0.00000005,0.00000127,-0.00000073,0.00000011,-0.00001315,0.00000483
 ,-0.00000075,0.00000084,-0.00000136,0.00000013,0.00000020,-0.00001107,
 0.00000091,0.00000041,0.00000141,-0.00000010,0.00003305,0.00000859,0.0
 0000174,0.00000277,0.00000073,-0.00000049,-0.00006120,-0.00001433,-0.0
 0000200,0.00000264,0.00000179,0.00000015,0.00013150,0.00007384,0.00001
 272,-0.00005550,-0.00004715,-0.00000548,-0.00012109,-0.00007292,-0.000
 03442,-0.00000689,0.00007514,0.00000718,0.00006678,0.00020516,0.000032
 24,-0.00010253,-0.00001027,-0.00004132,-0.00001195,0.00000149,0.000005
 48,-0.00001502,-0.00024225,0.00024470,0.00016998,0.00006381,-0.0000133
 5,-0.00000480,0.00001206,0.00000233,-0.00008063,-0.00013094,0.00000217
 ,0.00004631,0.00002645,0.00000009,-0.00033763,0.00018411,0.00021101,0.
 00021061,-0.00036841,-0.00028159,-0.00036259,0.00031634,-0.00020086,-0
 .00001500,-0.00001294,0.00004153,-0.00003915,0.00000993,0.00006603,0.0
 0038305,-0.00009960,0.00156374,0.00010533,-0.00016864,-0.00004587,-0.0
 0431290,-0.00625279,-0.00152918,-0.00004782,0.00030636,-0.00029208,0.0
 0024729,0.00007095,0.00056558,-0.00001459,-0.00000301,-0.00008681,0.00
 005900,0.00033943,0.00007542,-0.09044307,-0.26601892,-0.04632416,0.001
 81959,0.00344923,0.00049722,-0.00828216,-0.01888541,-0.00425520,0.1010
 6029,0.28717437,0.00000094,-0.00000203,0.00000019,-0.00001224,-0.00000
 200,-0.00000015,0.00001219,0.00000269,-0.00000009,-0.00000426,0.000011
 74,-0.00000065,0.00001953,-0.00000789,0.00000134,-0.00000454,-0.000016
 22,0.00000095,0.00000080,0.00000032,0.00000001,0.00000076,-0.00000080,
 0.00000005,-0.00000123,0.00000071,-0.00000011,0.00001255,-0.00000459,0
 .00000072,-0.00000078,0.00000129,-0.00000013,-0.00000024,0.00001095,-0
 .00000088,-0.00000036,-0.00000140,0.00000009,-0.00003091,-0.00000907,-
 0.00000165,-0.00000265,-0.00000067,0.00000042,0.00006119,0.00001658,0.
 00000135,-0.00000302,-0.00000179,-0.00000020,-0.00011708,-0.00007786,-
 0.00001044,0.00005225,0.00004433,0.00000516,0.00012340,0.00007369,0.00
 004921,0.00002533,-0.00005163,-0.00000649,-0.00001858,-0.00030548,-0.0
 0004574,0.00003791,-0.00001036,0.00003051,0.00000926,-0.00000323,-0.00
 000414,0.00025937,0.00036330,-0.00042284,-0.00001256,0.00010224,0.0000
 4346,0.00000897,-0.00001488,-0.00000143,0.00005734,0.00014965,-0.00000
 881,-0.00004944,-0.00002357,-0.00000038,0.00009086,-0.00023108,-0.0001
 2769,0.00001178,0.00034556,0.00017449,0.00103783,-0.00158622,0.0002490
 7,-0.00015850,-0.00002754,0.00005859,-0.00004450,0.00001031,-0.0000307
 8,0.00061768,0.00041772,-0.00256691,0.00010026,0.00051538,0.00026015,0
 .00999007,0.02509101,0.00563920,0.00023372,0.00022537,0.00091077,-0.00
 016385,-0.00022485,-0.00065270,0.00005842,-0.00006622,-0.00000150,0.00
 002371,-0.00035399,0.00027544,-0.02045910,-0.04520582,-0.06035510,-0.0
 0877201,-0.02590773,-0.00395668,-0.00169340,-0.00303061,-0.00121011,0.
 01870311,0.04978472,0.06170443\\0.00000381,0.00000306,-0.00000058,-0.0
 0000422,0.00000074,0.00000014,0.00000339,-0.00000360,0.00000116,-0.000
 00471,-0.00000022,-0.00000007,0.00000508,0.00000163,0.00000056,-0.0000
 0041,-0.00000235,0.00000120,-0.00000147,0.00000130,0.00000020,-0.00000
 106,0.00000193,0.00000003,0.00000099,-0.00000071,0.00000005,0.00000070
 ,0.00000417,0.00000036,0.00000089,-0.00000301,0.00000062,-0.00000372,0
 .00000270,-0.00000196,0.00000278,0.00000300,0.00000111,-0.00000573,0.0
 0000230,-0.00000010,0.00000218,-0.00000010,0.00000024,0.00000672,-0.00
 000761,0.00000139,-0.00000041,0.00000184,0.00000054,-0.00000340,0.0000
 0645,-0.00000452,-0.00000320,-0.00000118,0.00000143,0.00000128,-0.0000
 0291,0.00000080,0.00000204,-0.00000263,0.00000024,-0.00000269,0.000004
 05,-0.00000018,0.00000163,-0.00000136,-0.00000089,-0.00000092,0.000000
 28,0.00000054,-0.00000065,-0.00000166,-0.00000182,0.00000012,0.0000033
 8,0.00000291,0.00000095,-0.00000030,0.00000014,0.00000692,-0.00000195,
 0.00000030,-0.00000365,0.00000157,0.00000059,0.00000134,-0.00000112,-0
 .00000164,-0.00000327,0.00000106,0.00000061,-0.00000138,0.00000142,-0.
 00000099,-0.00000077,-0.00000004,-0.00000151,0.00000071,-0.00000181,0.
 00000010,0.00000179,-0.00000185,0.00000102,0.00000003,-0.00000046,0.00
 000033,-0.00000431,-0.00000205,0.00000046,0.00000036,-0.00000057,-0.00
 000114,0.00000035,-0.00000036,0.00000034,0.00000031,-0.00000077,0.0000
 0019,0.00000003,-0.00000064,-0.00000034,0.00000090,0.,-0.00000035,0.00
 000016,-0.00000046,0.00000008,-0.00000011,-0.00000098,-0.00000080,0.00
 000060,-0.00000018,-0.00000077\\\@


 MAN IS A SINGULAR CREATURE.  HE HAS A SET OF GIFTS
 WHICH MAKE HIM UNIQUE AMONG THE ANIMALS: SO THAT, 
 UNLIKE THEM, HE IS NOT A FIGURE IN THE LANDSCAPE --
 HE IS A SHAPER OF THE LANDSCAPE.

                       -- JACOB BRONOWSKI
 Job cpu time:       0 days  3 hours 47 minutes 19.0 seconds.
 Elapsed time:       0 days  0 hours 16 minutes 16.2 seconds.
 File lengths (MBytes):  RWF=   1091 Int=      0 D2E=      0 Chk=     28 Scr=      2
 Normal termination of Gaussian 16 at Tue Jul 11 13:05:54 2023.
