 Entering Gaussian System, Link 0=g16
 Input=MaDA-4-opt_freq-conf-1.com
 Output=MaDA-4-opt_freq-conf-1.log
 Initial command:
 /public/home/zhoujunsu/g16/l1.exe "/public/home/zhoujunsu/g16/scratch/Gau-431688.inp" -scrdir="/public/home/zhoujunsu/g16/scratch/"
 Entering Link 1 = /public/home/zhoujunsu/g16/l1.exe PID=    431689.
  
 Copyright (c) 1988,1990,1992,1993,1995,1998,2003,2009,2016,
            Gaussian, Inc.  All Rights Reserved.
  
 This is part of the Gaussian(R) 16 program.  It is based on
 the Gaussian(R) 09 system (copyright 2009, Gaussian, Inc.),
 the Gaussian(R) 03 system (copyright 2003, Gaussian, Inc.),
 the Gaussian(R) 98 system (copyright 1998, Gaussian, Inc.),
 the Gaussian(R) 94 system (copyright 1995, Gaussian, Inc.),
 the Gaussian 92(TM) system (copyright 1992, Gaussian, Inc.),
 the Gaussian 90(TM) system (copyright 1990, Gaussian, Inc.),
 the Gaussian 88(TM) system (copyright 1988, Gaussian, Inc.),
 the Gaussian 86(TM) system (copyright 1986, Carnegie Mellon
 University), and the Gaussian 82(TM) system (copyright 1983,
 Carnegie Mellon University). Gaussian is a federally registered
 trademark of Gaussian, Inc.
  
 This software contains proprietary and confidential information,
 including trade secrets, belonging to Gaussian, Inc.
  
 This software is provided under written license and may be
 used, copied, transmitted, or stored only in accord with that
 written license.
  
 The following legend is applicable only to US Government
 contracts under FAR:
  
                    RESTRICTED RIGHTS LEGEND
  
 Use, reproduction and disclosure by the US Government is
 subject to restrictions as set forth in subparagraphs (a)
 and (c) of the Commercial Computer Software - Restricted
 Rights clause in FAR 52.227-19.
  
 Gaussian, Inc.
 340 Quinnipiac St., Bldg. 40, Wallingford CT 06492
  
  
 ---------------------------------------------------------------
 Warning -- This program may not be used in any manner that
 competes with the business of Gaussian, Inc. or will provide
 assistance to any competitor of Gaussian, Inc.  The licensee
 of this program is prohibited from giving any competitor of
 Gaussian, Inc. access to this program.  By using this program,
 the user acknowledges that Gaussian, Inc. is engaged in the
 business of creating and licensing software in the field of
 computational chemistry and represents and warrants to the
 licensee that it is not a competitor of Gaussian, Inc. and that
 it will not use this program in any manner prohibited above.
 ---------------------------------------------------------------
  

 Cite this work as:
 Gaussian 16, Revision A.03,
 M. J. Frisch, G. W. Trucks, H. B. Schlegel, G. E. Scuseria, 
 M. A. Robb, J. R. Cheeseman, G. Scalmani, V. Barone, 
 G. A. Petersson, H. Nakatsuji, X. Li, M. Caricato, A. V. Marenich, 
 J. Bloino, B. G. Janesko, R. Gomperts, B. Mennucci, H. P. Hratchian, 
 J. V. Ortiz, A. F. Izmaylov, J. L. Sonnenberg, D. Williams-Young, 
 F. Ding, F. Lipparini, F. Egidi, J. Goings, B. Peng, A. Petrone, 
 T. Henderson, D. Ranasinghe, V. G. Zakrzewski, J. Gao, N. Rega, 
 G. Zheng, W. Liang, M. Hada, M. Ehara, K. Toyota, R. Fukuda, 
 J. Hasegawa, M. Ishida, T. Nakajima, Y. Honda, O. Kitao, H. Nakai, 
 T. Vreven, K. Throssell, J. A. Montgomery, Jr., J. E. Peralta, 
 F. Ogliaro, M. J. Bearpark, J. J. Heyd, E. N. Brothers, K. N. Kudin, 
 V. N. Staroverov, T. A. Keith, R. Kobayashi, J. Normand, 
 K. Raghavachari, A. P. Rendell, J. C. Burant, S. S. Iyengar, 
 J. Tomasi, M. Cossi, J. M. Millam, M. Klene, C. Adamo, R. Cammi, 
 J. W. Ochterski, R. L. Martin, K. Morokuma, O. Farkas, 
 J. B. Foresman, and D. J. Fox, Gaussian, Inc., Wallingford CT, 2016.
 
 ******************************************
 Gaussian 16:  ES64L-G16RevA.03 25-Dec-2016
                11-Jul-2023 
 ******************************************
 %mem=28gb
 %nproc=14
 Will use up to   14 processors via shared memory.
 %chk=MaDA-4-conf-1.chk
 ----------------------------------------------------------------------
 # wb97xd/6-31G(d) opt freq=noraman integral(ultrafinegrid) scrf=(cpcm,
 read,solvent=water)
 ----------------------------------------------------------------------
 1/18=20,19=15,26=6,38=1,40=2/1,3;
 2/9=110,12=2,17=6,18=5,40=1/2;
 3/5=1,6=6,7=1,11=2,25=1,30=1,70=2103,71=1,72=1,74=-58,75=-5/1,2,3;
 4//1;
 5/5=2,38=5,53=1/2;
 6/7=2,8=2,9=2,10=2,28=1/1;
 7//1,2,3,16;
 1/18=20,19=15,26=6/3(2);
 2/9=110/2;
 99//99;
 2/9=110/2;
 3/5=1,6=6,7=1,11=2,25=1,30=1,70=2105,71=1,72=1,74=-58,75=-5/1,2,3;
 4/5=5,16=3,69=1/1;
 5/5=2,38=5,53=1/2;
 7//1,2,3,16;
 1/18=20,19=15,26=6/3(-5);
 2/9=110/2;
 6/7=2,8=2,9=2,10=2,19=2,28=1/1;
 99/9=1/99;
 ----------------------------------------------------------------------
 Candidate Structure: MaDA-4, Conformer: 1, geometry optimization and f
 requency calculation with water solvation
 ----------------------------------------------------------------------
 Symbolic Z-matrix:
 Charge =  0 Multiplicity = 1
 C                    -3.8449   -1.04914  -0.00019 
 C                    -3.75595   0.34928   0.00003 
 C                    -4.84848   1.20092   0.00015 
 C                    -6.09901   0.59223   0.00003 
 C                    -6.22942  -0.8101   -0.00019 
 C                    -5.11441  -1.63358  -0.0003 
 C                    -2.484    -1.51512  -0.00024 
 C                    -1.69637  -0.40882  -0.00005 
 H                    -4.75159   2.27967   0.00032 
 H                    -7.22382  -1.25085  -0.00028 
 H                    -5.23329  -2.71251  -0.00048 
 H                    -2.14817  -2.54191  -0.00042 
 O                    -7.18517   1.4122    0.00014 
 H                    -7.98691   0.8765    0.00004 
 O                    -2.45658   0.73767   0.00011 
 C                    -0.24984  -0.22127  -0.00002 
 C                     0.29609   1.06129  -0.00007 
 C                     0.60777  -1.32139   0.00006 
 C                     1.67653   1.2276   -0.00004 
 H                    -0.36006   1.92612  -0.00012 
 C                     1.98723  -1.14033   0.00008 
 H                     0.20415  -2.33082   0.00013 
 C                     2.57508   0.14037   0.00002 
 O                     2.8148   -2.21797   0.00015 
 H                     2.28144  -3.02163   0.0002 
 O                     2.21988   2.47468  -0.00009 
 H                     1.5077    3.1247   -0.00013 
 C                     4.01107   0.42452   0.00004 
 H                     4.23224   1.48695   0.00002 
 C                     5.04572  -0.43562   0.00007 
 H                     4.87045  -1.50471   0.00008 
 C                     6.45319  -0.02067   0.00008 
 C                     7.41606  -0.95301   0.00011 
 H                     7.1776   -2.01347   0.00012 
 H                     8.46967  -0.68816   0.00012 
 C                     6.78809   1.44882   0.00006 
 H                     6.37022   1.94817  -0.88196 
 H                     6.3702    1.94821   0.88205 
 H                     7.87001   1.6053    0.00007 
 

 GradGradGradGradGradGradGradGradGradGradGradGradGradGradGradGradGradGrad
 Berny optimization.
 Initialization pass.
                           ----------------------------
                           !    Initial Parameters    !
                           ! (Angstroms and Degrees)  !
 --------------------------                            --------------------------
 ! Name  Definition              Value          Derivative Info.                !
 --------------------------------------------------------------------------------
 ! R1    R(1,2)                  1.4012         estimate D2E/DX2                !
 ! R2    R(1,6)                  1.3976         estimate D2E/DX2                !
 ! R3    R(1,7)                  1.4385         estimate D2E/DX2                !
 ! R4    R(2,3)                  1.3853         estimate D2E/DX2                !
 ! R5    R(2,15)                 1.3562         estimate D2E/DX2                !
 ! R6    R(3,4)                  1.3908         estimate D2E/DX2                !
 ! R7    R(3,9)                  1.0831         estimate D2E/DX2                !
 ! R8    R(4,5)                  1.4084         estimate D2E/DX2                !
 ! R9    R(4,13)                 1.3609         estimate D2E/DX2                !
 ! R10   R(5,6)                  1.3861         estimate D2E/DX2                !
 ! R11   R(5,10)                 1.0877         estimate D2E/DX2                !
 ! R12   R(6,11)                 1.0855         estimate D2E/DX2                !
 ! R13   R(7,8)                  1.358          estimate D2E/DX2                !
 ! R14   R(7,12)                 1.0803         estimate D2E/DX2                !
 ! R15   R(8,15)                 1.3756         estimate D2E/DX2                !
 ! R16   R(8,16)                 1.4586         estimate D2E/DX2                !
 ! R17   R(13,14)                0.9642         estimate D2E/DX2                !
 ! R18   R(16,17)                1.3939         estimate D2E/DX2                !
 ! R19   R(16,18)                1.3949         estimate D2E/DX2                !
 ! R20   R(17,19)                1.3904         estimate D2E/DX2                !
 ! R21   R(17,20)                1.0856         estimate D2E/DX2                !
 ! R22   R(18,21)                1.3913         estimate D2E/DX2                !
 ! R23   R(18,22)                1.0871         estimate D2E/DX2                !
 ! R24   R(19,23)                1.4105         estimate D2E/DX2                !
 ! R25   R(19,26)                1.3603         estimate D2E/DX2                !
 ! R26   R(21,23)                1.4092         estimate D2E/DX2                !
 ! R27   R(21,24)                1.3587         estimate D2E/DX2                !
 ! R28   R(23,28)                1.4638         estimate D2E/DX2                !
 ! R29   R(24,25)                0.9645         estimate D2E/DX2                !
 ! R30   R(26,27)                0.9642         estimate D2E/DX2                !
 ! R31   R(28,29)                1.0852         estimate D2E/DX2                !
 ! R32   R(28,30)                1.3455         estimate D2E/DX2                !
 ! R33   R(30,31)                1.0834         estimate D2E/DX2                !
 ! R34   R(30,32)                1.4674         estimate D2E/DX2                !
 ! R35   R(32,33)                1.3403         estimate D2E/DX2                !
 ! R36   R(32,36)                1.5072         estimate D2E/DX2                !
 ! R37   R(33,34)                1.0869         estimate D2E/DX2                !
 ! R38   R(33,35)                1.0864         estimate D2E/DX2                !
 ! R39   R(36,37)                1.0963         estimate D2E/DX2                !
 ! R40   R(36,38)                1.0963         estimate D2E/DX2                !
 ! R41   R(36,39)                1.0932         estimate D2E/DX2                !
 ! A1    A(2,1,6)              118.3596         estimate D2E/DX2                !
 ! A2    A(2,1,7)              105.2616         estimate D2E/DX2                !
 ! A3    A(6,1,7)              136.3788         estimate D2E/DX2                !
 ! A4    A(1,2,3)              124.2971         estimate D2E/DX2                !
 ! A5    A(1,2,15)             110.2817         estimate D2E/DX2                !
 ! A6    A(3,2,15)             125.4212         estimate D2E/DX2                !
 ! A7    A(2,3,4)              116.1089         estimate D2E/DX2                !
 ! A8    A(2,3,9)              122.804          estimate D2E/DX2                !
 ! A9    A(4,3,9)              121.0871         estimate D2E/DX2                !
 ! A10   A(3,4,5)              121.2669         estimate D2E/DX2                !
 ! A11   A(3,4,13)             116.9955         estimate D2E/DX2                !
 ! A12   A(5,4,13)             121.7376         estimate D2E/DX2                !
 ! A13   A(4,5,6)              121.135          estimate D2E/DX2                !
 ! A14   A(4,5,10)             119.217          estimate D2E/DX2                !
 ! A15   A(6,5,10)             119.648          estimate D2E/DX2                !
 ! A16   A(1,6,5)              118.8325         estimate D2E/DX2                !
 ! A17   A(1,6,11)             121.0079         estimate D2E/DX2                !
 ! A18   A(5,6,11)             120.1596         estimate D2E/DX2                !
 ! A19   A(1,7,8)              106.5479         estimate D2E/DX2                !
 ! A20   A(1,7,12)             127.0124         estimate D2E/DX2                !
 ! A21   A(8,7,12)             126.4397         estimate D2E/DX2                !
 ! A22   A(7,8,15)             111.0034         estimate D2E/DX2                !
 ! A23   A(7,8,16)             132.8366         estimate D2E/DX2                !
 ! A24   A(15,8,16)            116.16           estimate D2E/DX2                !
 ! A25   A(4,13,14)            109.2            estimate D2E/DX2                !
 ! A26   A(2,15,8)             106.9054         estimate D2E/DX2                !
 ! A27   A(8,16,17)            120.4448         estimate D2E/DX2                !
 ! A28   A(8,16,18)            120.5511         estimate D2E/DX2                !
 ! A29   A(17,16,18)           119.0041         estimate D2E/DX2                !
 ! A30   A(16,17,19)           119.9269         estimate D2E/DX2                !
 ! A31   A(16,17,20)           119.755          estimate D2E/DX2                !
 ! A32   A(19,17,20)           120.318          estimate D2E/DX2                !
 ! A33   A(16,18,21)           120.4607         estimate D2E/DX2                !
 ! A34   A(16,18,22)           120.2677         estimate D2E/DX2                !
 ! A35   A(21,18,22)           119.2716         estimate D2E/DX2                !
 ! A36   A(17,19,23)           122.7027         estimate D2E/DX2                !
 ! A37   A(17,19,26)           120.4121         estimate D2E/DX2                !
 ! A38   A(23,19,26)           116.8852         estimate D2E/DX2                !
 ! A39   A(18,21,23)           122.1333         estimate D2E/DX2                !
 ! A40   A(18,21,24)           120.0443         estimate D2E/DX2                !
 ! A41   A(23,21,24)           117.8224         estimate D2E/DX2                !
 ! A42   A(19,23,21)           115.7722         estimate D2E/DX2                !
 ! A43   A(19,23,28)           118.3794         estimate D2E/DX2                !
 ! A44   A(21,23,28)           125.8483         estimate D2E/DX2                !
 ! A45   A(21,24,25)           108.9071         estimate D2E/DX2                !
 ! A46   A(19,26,27)           108.8452         estimate D2E/DX2                !
 ! A47   A(23,28,29)           112.9521         estimate D2E/DX2                !
 ! A48   A(23,28,30)           129.0692         estimate D2E/DX2                !
 ! A49   A(29,28,30)           117.9787         estimate D2E/DX2                !
 ! A50   A(28,30,31)           120.4277         estimate D2E/DX2                !
 ! A51   A(28,30,32)           123.8359         estimate D2E/DX2                !
 ! A52   A(31,30,32)           115.7363         estimate D2E/DX2                !
 ! A53   A(30,32,33)           119.4967         estimate D2E/DX2                !
 ! A54   A(30,32,36)           119.2645         estimate D2E/DX2                !
 ! A55   A(33,32,36)           121.2388         estimate D2E/DX2                !
 ! A56   A(32,33,34)           121.4039         estimate D2E/DX2                !
 ! A57   A(32,33,35)           121.8125         estimate D2E/DX2                !
 ! A58   A(34,33,35)           116.7836         estimate D2E/DX2                !
 ! A59   A(32,36,37)           111.0642         estimate D2E/DX2                !
 ! A60   A(32,36,38)           111.0642         estimate D2E/DX2                !
 ! A61   A(32,36,39)           111.068          estimate D2E/DX2                !
 ! A62   A(37,36,38)           107.126          estimate D2E/DX2                !
 ! A63   A(37,36,39)           108.1822         estimate D2E/DX2                !
 ! A64   A(38,36,39)           108.1822         estimate D2E/DX2                !
 ! D1    D(6,1,2,3)              0.0002         estimate D2E/DX2                !
 ! D2    D(6,1,2,15)          -180.0            estimate D2E/DX2                !
 ! D3    D(7,1,2,3)            180.0            estimate D2E/DX2                !
 ! D4    D(7,1,2,15)            -0.0002         estimate D2E/DX2                !
 ! D5    D(2,1,6,5)             -0.0001         estimate D2E/DX2                !
 ! D6    D(2,1,6,11)           179.9998         estimate D2E/DX2                !
 ! D7    D(7,1,6,5)           -179.9998         estimate D2E/DX2                !
 ! D8    D(7,1,6,11)             0.0001         estimate D2E/DX2                !
 ! D9    D(2,1,7,8)              0.0003         estimate D2E/DX2                !
 ! D10   D(2,1,7,12)          -179.9984         estimate D2E/DX2                !
 ! D11   D(6,1,7,8)           -180.0            estimate D2E/DX2                !
 ! D12   D(6,1,7,12)             0.0013         estimate D2E/DX2                !
 ! D13   D(1,2,3,4)             -0.0002         estimate D2E/DX2                !
 ! D14   D(1,2,3,9)            179.9999         estimate D2E/DX2                !
 ! D15   D(15,2,3,4)          -180.0            estimate D2E/DX2                !
 ! D16   D(15,2,3,9)             0.0            estimate D2E/DX2                !
 ! D17   D(1,2,15,8)             0.0            estimate D2E/DX2                !
 ! D18   D(3,2,15,8)           179.9999         estimate D2E/DX2                !
 ! D19   D(2,3,4,5)              0.0            estimate D2E/DX2                !
 ! D20   D(2,3,4,13)          -179.9999         estimate D2E/DX2                !
 ! D21   D(9,3,4,5)            180.0            estimate D2E/DX2                !
 ! D22   D(9,3,4,13)             0.0            estimate D2E/DX2                !
 ! D23   D(3,4,5,6)              0.0001         estimate D2E/DX2                !
 ! D24   D(3,4,5,10)          -179.9999         estimate D2E/DX2                !
 ! D25   D(13,4,5,6)          -179.9999         estimate D2E/DX2                !
 ! D26   D(13,4,5,10)            0.0            estimate D2E/DX2                !
 ! D27   D(3,4,13,14)          179.9998         estimate D2E/DX2                !
 ! D28   D(5,4,13,14)           -0.0002         estimate D2E/DX2                !
 ! D29   D(4,5,6,1)             -0.0001         estimate D2E/DX2                !
 ! D30   D(4,5,6,11)          -180.0            estimate D2E/DX2                !
 ! D31   D(10,5,6,1)           180.0            estimate D2E/DX2                !
 ! D32   D(10,5,6,11)            0.0001         estimate D2E/DX2                !
 ! D33   D(1,7,8,15)            -0.0003         estimate D2E/DX2                !
 ! D34   D(1,7,8,16)          -179.9992         estimate D2E/DX2                !
 ! D35   D(12,7,8,15)          179.9984         estimate D2E/DX2                !
 ! D36   D(12,7,8,16)           -0.0005         estimate D2E/DX2                !
 ! D37   D(7,8,15,2)             0.0002         estimate D2E/DX2                !
 ! D38   D(16,8,15,2)          179.9993         estimate D2E/DX2                !
 ! D39   D(7,8,16,17)          179.9871         estimate D2E/DX2                !
 ! D40   D(7,8,16,18)           -0.0124         estimate D2E/DX2                !
 ! D41   D(15,8,16,17)          -0.0117         estimate D2E/DX2                !
 ! D42   D(15,8,16,18)         179.9887         estimate D2E/DX2                !
 ! D43   D(8,16,17,19)        -179.9992         estimate D2E/DX2                !
 ! D44   D(8,16,17,20)           0.0005         estimate D2E/DX2                !
 ! D45   D(18,16,17,19)          0.0003         estimate D2E/DX2                !
 ! D46   D(18,16,17,20)       -179.9999         estimate D2E/DX2                !
 ! D47   D(8,16,18,21)         179.999          estimate D2E/DX2                !
 ! D48   D(8,16,18,22)          -0.0022         estimate D2E/DX2                !
 ! D49   D(17,16,18,21)         -0.0005         estimate D2E/DX2                !
 ! D50   D(17,16,18,22)        179.9982         estimate D2E/DX2                !
 ! D51   D(16,17,19,23)          0.0002         estimate D2E/DX2                !
 ! D52   D(16,17,19,26)        179.9999         estimate D2E/DX2                !
 ! D53   D(20,17,19,23)       -179.9996         estimate D2E/DX2                !
 ! D54   D(20,17,19,26)          0.0002         estimate D2E/DX2                !
 ! D55   D(16,18,21,23)          0.0003         estimate D2E/DX2                !
 ! D56   D(16,18,21,24)        179.9999         estimate D2E/DX2                !
 ! D57   D(22,18,21,23)       -179.9985         estimate D2E/DX2                !
 ! D58   D(22,18,21,24)          0.0011         estimate D2E/DX2                !
 ! D59   D(17,19,23,21)         -0.0004         estimate D2E/DX2                !
 ! D60   D(17,19,23,28)        180.0            estimate D2E/DX2                !
 ! D61   D(26,19,23,21)        179.9999         estimate D2E/DX2                !
 ! D62   D(26,19,23,28)          0.0002         estimate D2E/DX2                !
 ! D63   D(17,19,26,27)          0.0005         estimate D2E/DX2                !
 ! D64   D(23,19,26,27)       -179.9997         estimate D2E/DX2                !
 ! D65   D(18,21,23,19)          0.0001         estimate D2E/DX2                !
 ! D66   D(18,21,23,28)        179.9997         estimate D2E/DX2                !
 ! D67   D(24,21,23,19)       -179.9994         estimate D2E/DX2                !
 ! D68   D(24,21,23,28)          0.0002         estimate D2E/DX2                !
 ! D69   D(18,21,24,25)         -0.0003         estimate D2E/DX2                !
 ! D70   D(23,21,24,25)        179.9993         estimate D2E/DX2                !
 ! D71   D(19,23,28,29)          0.0014         estimate D2E/DX2                !
 ! D72   D(19,23,28,30)       -179.9983         estimate D2E/DX2                !
 ! D73   D(21,23,28,29)       -179.9982         estimate D2E/DX2                !
 ! D74   D(21,23,28,30)          0.0021         estimate D2E/DX2                !
 ! D75   D(23,28,30,31)         -0.0001         estimate D2E/DX2                !
 ! D76   D(23,28,30,32)        179.9999         estimate D2E/DX2                !
 ! D77   D(29,28,30,31)       -179.9998         estimate D2E/DX2                !
 ! D78   D(29,28,30,32)          0.0002         estimate D2E/DX2                !
 ! D79   D(28,30,32,33)       -179.9999         estimate D2E/DX2                !
 ! D80   D(28,30,32,36)          0.0            estimate D2E/DX2                !
 ! D81   D(31,30,32,33)          0.0            estimate D2E/DX2                !
 ! D82   D(31,30,32,36)        180.0            estimate D2E/DX2                !
 ! D83   D(30,32,33,34)          0.0            estimate D2E/DX2                !
 ! D84   D(30,32,33,35)        180.0            estimate D2E/DX2                !
 ! D85   D(36,32,33,34)       -180.0            estimate D2E/DX2                !
 ! D86   D(36,32,33,35)          0.0            estimate D2E/DX2                !
 ! D87   D(30,32,36,37)        -59.5553         estimate D2E/DX2                !
 ! D88   D(30,32,36,38)         59.5553         estimate D2E/DX2                !
 ! D89   D(30,32,36,39)       -180.0            estimate D2E/DX2                !
 ! D90   D(33,32,36,37)        120.4447         estimate D2E/DX2                !
 ! D91   D(33,32,36,38)       -120.4447         estimate D2E/DX2                !
 ! D92   D(33,32,36,39)          0.0            estimate D2E/DX2                !
 --------------------------------------------------------------------------------
 Trust Radius=3.00D-01 FncErr=5.00D-06 GrdErr=5.00D-06 EigMax=2.50D+02 EigMin=1.00D-04
 Number of steps in this run=    207 maximum allowed number of steps=    234.
 GradGradGradGradGradGradGradGradGradGradGradGradGradGradGradGradGradGrad

                          Input orientation:                          
 ---------------------------------------------------------------------
 Center     Atomic      Atomic             Coordinates (Angstroms)
 Number     Number       Type             X           Y           Z
 ---------------------------------------------------------------------
      1          6           0       -3.844898   -1.049141   -0.000190
      2          6           0       -3.755945    0.349277    0.000031
      3          6           0       -4.848483    1.200922    0.000149
      4          6           0       -6.099014    0.592232    0.000032
      5          6           0       -6.229415   -0.810099   -0.000193
      6          6           0       -5.114407   -1.633584   -0.000304
      7          6           0       -2.483997   -1.515115   -0.000244
      8          6           0       -1.696368   -0.408823   -0.000053
      9          1           0       -4.751585    2.279674    0.000322
     10          1           0       -7.223825   -1.250852   -0.000280
     11          1           0       -5.233292   -2.712507   -0.000478
     12          1           0       -2.148169   -2.541905   -0.000424
     13          8           0       -7.185167    1.412201    0.000144
     14          1           0       -7.986913    0.876496    0.000043
     15          8           0       -2.456583    0.737672    0.000114
     16          6           0       -0.249841   -0.221274   -0.000015
     17          6           0        0.296090    1.061288   -0.000065
     18          6           0        0.607767   -1.321392    0.000062
     19          6           0        1.676528    1.227596   -0.000044
     20          1           0       -0.360059    1.926120   -0.000124
     21          6           0        1.987229   -1.140325    0.000077
     22          1           0        0.204152   -2.330820    0.000131
     23          6           0        2.575076    0.140369    0.000023
     24          8           0        2.814799   -2.217973    0.000154
     25          1           0        2.281438   -3.021635    0.000195
     26          8           0        2.219875    2.474680   -0.000094
     27          1           0        1.507703    3.124701   -0.000133
     28          6           0        4.011075    0.424519    0.000039
     29          1           0        4.232240    1.486949    0.000020
     30          6           0        5.045717   -0.435615    0.000068
     31          1           0        4.870451   -1.504708    0.000084
     32          6           0        6.453194   -0.020674    0.000079
     33          6           0        7.416063   -0.953014    0.000107
     34          1           0        7.177599   -2.013474    0.000122
     35          1           0        8.469671   -0.688163    0.000116
     36          6           0        6.788090    1.448820    0.000058
     37          1           0        6.370222    1.948174   -0.881957
     38          1           0        6.370200    1.948205    0.882045
     39          1           0        7.870013    1.605299    0.000069
 ---------------------------------------------------------------------
                    Distance matrix (angstroms):
                    1          2          3          4          5
     1  C    0.000000
     2  C    1.401244   0.000000
     3  C    2.463730   1.385258   0.000000
     4  C    2.788395   2.355631   1.390802   0.000000
     5  C    2.396469   2.731704   2.439504   1.408381   0.000000
     6  C    1.397579   2.403572   2.846953   2.433867   1.386135
     7  C    1.438466   2.256947   3.601063   4.184407   3.811195
     8  C    2.241916   2.194669   3.539365   4.515020   4.550773
     9  H    3.450086   2.172034   1.083095   2.159404   3.425008
    10  H    3.384942   3.819241   3.413714   2.159203   1.087711
    11  H    2.166662   3.399570   3.932303   3.416252   2.147421
    12  H    2.259919   3.308153   4.615241   5.043014   4.433477
    13  O    4.149169   3.590177   2.346216   1.360911   2.419107
    14  H    4.567753   4.263690   3.155154   1.909180   2.435858
    15  O    2.262768   1.356168   2.436347   3.645334   4.077972
    16  C    3.689146   3.552224   4.813538   5.905473   6.008496
    17  C    4.647762   4.114116   5.146468   6.412283   6.788542
    18  C    4.460980   4.672592   6.011051   6.974444   6.856273
    19  C    5.972410   5.503018   6.525066   7.801458   8.164321
    20  H    4.582170   3.744125   4.546632   5.891932   6.475819
    21  C    5.832840   5.933208   7.225538   8.269769   8.223277
    22  H    4.247059   4.781766   6.164602   6.947959   6.610853
    23  C    6.529242   6.334467   7.498933   8.685852   8.855645
    24  O    6.761489   7.054463   8.391349   9.346300   9.153137
    25  H    6.436049   6.914697   8.286481   9.126446   8.793493
    26  O    7.014185   6.342536   7.182210   8.529216   9.065334
    27  H    6.787584   5.950544   6.640936   8.017203   8.680187
    28  C    7.992996   7.767384   8.893513  10.111480  10.314646
    29  H    8.465926   8.068792   9.085227  10.369924  10.710866
    30  C    8.911759   8.836589  10.028631  11.192028  11.281349
    31  H    8.727248   8.823376  10.088514  11.168094  11.121578
    32  C   10.349321  10.215840  11.367506  12.567163  12.707154
    33  C   11.261371  11.247654  12.452250  13.603128  13.646226
    34  H   11.064600  11.185928  12.448252  13.529899  13.460911
    35  H   12.319859  12.269555  13.451463  14.624842  14.699592
    36  C   10.922465  10.601211  11.639213  12.915541  13.212046
    37  H   10.682232  10.289491  11.278113  12.573716  12.928126
    38  H   10.682259  10.289477  11.278077  12.573699  12.928143
    39  H   12.011877  11.693609  12.724923  14.005714  14.304825
                    6          7          8          9         10
     6  C    0.000000
     7  C    2.633076   0.000000
     8  C    3.630844   1.358029   0.000000
     9  H    3.930042   4.420676   4.069689   0.000000
    10  H    2.143858   4.747189   5.591225   4.310056   0.000000
    11  H    1.085453   2.998728   4.220994   5.015368   2.469546
    12  H    3.102195   1.080314   2.180404   5.479544   5.237280
    13  O    3.683049   5.538066   5.782996   2.583569   2.663334
    14  H    3.814681   6.000157   6.420514   3.526508   2.260069
    15  O    3.561865   2.252954   1.375637   2.764924   5.165348
    16  C    5.065434   2.581759   1.458635   5.149800   7.049573
    17  C    6.044486   3.790348   2.476109   5.192638   7.867345
    18  C    5.730684   3.097827   2.478270   6.456805   7.831910
    19  C    7.369067   4.983215   3.748906   6.513640   9.238993
    20  H    5.939303   4.043910   2.690294   4.405735   7.563361
    21  C    7.118746   4.486906   3.755527   7.556984   9.211717
    22  H    5.364066   2.809185   2.702970   6.768751   7.506076
    23  C    7.891455   5.323049   4.306605   7.632600   9.897169
    24  O    7.950712   5.345208   4.860417   8.802215  10.085103
    25  H    7.524972   4.997897   4.759173   8.807229   9.668800
    26  O    8.406517   6.168053   4.863286   6.974187  10.151998
    27  H    8.154362   6.120585   4.769891   6.316071   9.766527
    28  C    9.354689   6.778506   5.767960   8.956886  11.359131
    29  H    9.853808   7.356645   6.224335   9.018732  11.778666
    30  C   10.230506   7.606702   6.742138  10.166608  12.296596
    31  H    9.985690   7.354455   6.657633  10.339493  12.096940
    32  C   11.679506   9.061277   8.158800  11.438473  13.732232
    33  C   12.548938   9.916005   9.128666  12.589755  14.642917
    34  H   12.297875   9.674441   9.017882  12.678192  14.421602
    35  H   13.616938  10.984839  10.169876  13.550264  15.703580
    36  C   12.295147   9.734295   8.685440  11.569547  14.269618
    37  H   12.062463   9.548245   8.450033  11.161671  13.993185
    38  H   12.062502   9.548289   8.450041  11.161604  13.993212
    39  H   13.382284  10.813996   9.776110  12.639601  15.361691
                   11         12         13         14         15
    11  H    0.000000
    12  H    3.089836   0.000000
    13  O    4.563226   6.403616   0.000000
    14  H    4.523646   6.765826   0.964249   0.000000
    15  O    4.428752   3.294047   4.776452   5.532072   0.000000
    16  C    5.571447   2.998162   7.125096   7.814562   2.406094
    17  C    6.694445   4.354010   7.489482   8.285064   2.771631
    18  C    6.004429   3.014106   8.258471   8.871259   3.691881
    19  C    7.954246   5.370051   8.863618   9.669817   4.162047
    20  H    6.727946   4.812545   6.844429   7.698741   2.409942
    21  C    7.389701   4.366457   9.520937  10.176005   4.824348
    22  H    5.450824   2.361773   8.283251   8.796614   4.061423
    23  C    8.313213   5.431725   9.842759  10.587610   5.066988
    24  O    8.063271   4.973528  10.638491  11.236224   6.043451
    25  H    7.521086   4.455509  10.453493  10.983372   6.048242
    26  O    9.080562   6.651762   9.464865  10.331153   4.988633
    27  H    8.917063   6.743576   8.859946   9.757159   4.627469
    28  C    9.762134   6.836370  11.239722  12.006498   6.475235
    29  H   10.355275   7.545945  11.417652  12.234392   6.730659
    30  C   10.528165   7.495896  12.369679  13.098514   7.593491
    31  H   10.175677   7.094844  12.403479  13.076006   7.662486
    32  C   11.992494   8.963261  13.713425  14.467951   8.941992
    33  C   12.771139   9.695314  14.791557  15.511247  10.016365
    34  H   12.430562   9.340727  14.765646  15.437433  10.019295
    35  H   13.851685  10.778445  15.795109  16.530799  11.018894
    36  C   12.721253   9.786859  13.973305  14.786084   9.271985
    37  H   12.535569   9.669586  13.594629  14.424068   8.952980
    38  H   12.535634   9.669666  13.594595  14.424049   8.952949
    39  H   13.796378  10.842660  15.056418  15.873665  10.362980
                   16         17         18         19         20
    16  C    0.000000
    17  C    1.393917   0.000000
    18  C    1.394902   2.402979   0.000000
    19  C    2.410419   1.390420   2.763981   0.000000
    20  H    2.150221   1.085572   3.388661   2.153050   0.000000
    21  C    2.418499   2.776158   1.391295   2.388218   3.861715
    22  H    2.157845   3.393354   1.087129   3.851002   4.294167
    23  C    2.847972   2.458021   2.450928   1.410479   3.435684
    24  O    3.657708   4.134906   2.382194   3.628720   5.220463
    25  H    3.774837   4.540029   2.385791   4.292072   5.608724
    26  O    3.656182   2.387179   4.124204   1.360310   2.637608
    27  H    3.779485   2.392839   4.536257   1.904602   2.219264
    28  C    4.309577   3.769163   3.825011   2.468814   4.621863
    29  H    4.796569   3.959099   4.585148   2.568838   4.613251
    30  C    5.299894   4.979927   4.525484   3.757354   5.899170
    31  H    5.278692   5.244913   4.266624   4.203169   6.255303
    32  C    6.706036   6.251446   5.988396   4.937076   7.085931
    33  C    7.700749   7.399421   6.818255   6.139814   8.292013
    34  H    7.640605   7.537196   6.606184   6.384851   8.505098
    35  H    8.732003   8.358708   7.887364   7.058111   9.208616
    36  C    7.233373   6.503556   6.772774   5.116347   7.164067
    37  H    7.022077   6.201563   6.683854   4.829883   6.787842
    38  H    7.022080   6.201577   6.683846   4.829898   6.787864
    39  H    8.322764   7.593435   7.829798   6.204991   8.236323
                   21         22         23         24         25
    21  C    0.000000
    22  H    2.143978   0.000000
    23  C    1.409163   3.424625   0.000000
    24  O    1.358748   2.613085   2.370494   0.000000
    25  H    1.904176   2.189142   3.175609   0.964545   0.000000
    26  O    3.622483   5.211139   2.361181   4.730214   5.496660
    27  H    4.291898   5.609096   3.169467   5.500242   6.194846
    28  C    2.558259   4.699421   1.463842   2.900662   3.855855
    29  H    3.455813   5.549852   2.135292   3.966811   4.912531
    30  C    3.138625   5.199284   2.536893   2.855485   3.785332
    31  H    2.906156   4.738861   2.824009   2.175880   3.000676
    32  C    4.604179   6.662379   3.881460   4.250417   5.138999
    33  C    5.432064   7.342344   4.962927   4.771976   5.535663
    34  H    5.263300   6.980664   5.081561   4.367590   4.998878
    35  H    6.498192   8.427166   5.952539   5.858148   6.613571
    36  C    5.454534   7.591701   4.411523   5.406701   6.347825
    37  H    5.433916   7.557003   4.295251   5.547606   6.495795
    38  H    5.433905   7.556982   4.295253   5.547580   6.495764
    39  H    6.491964   8.617335   5.493849   6.338186   7.255390
                   26         27         28         29         30
    26  O    0.000000
    27  H    0.964218   0.000000
    28  C    2.722418   3.682099   0.000000
    29  H    2.241701   3.178889   1.085206   0.000000
    30  C    4.056501   5.019302   1.345479   2.087582   0.000000
    31  H    4.781326   5.721844   2.111976   3.058974   1.083364
    32  C    4.914039   5.860995   2.482366   2.684318   1.467368
    33  C    6.224906   7.178891   3.673083   4.011253   2.426158
    34  H    6.687492   7.651703   3.996334   4.574724   2.652274
    35  H    7.004536   7.937690   4.595339   4.763080   3.433255
    36  C    4.681984   5.539952   2.959899   2.556134   2.566507
    37  H    4.275543   5.079953   2.943640   2.358300   2.866135
    38  H    4.275575   5.079986   2.943641   2.358304   2.866136
    39  H    5.716632   6.541221   4.035548   3.639698   3.484534
                   31         32         33         34         35
    31  H    0.000000
    32  C    2.169662   0.000000
    33  C    2.604709   1.340289   0.000000
    34  H    2.362578   2.120381   1.086941   0.000000
    35  H    3.690682   2.124081   1.086387   1.850919   0.000000
    36  C    3.521458   1.507172   2.482571   3.484135   2.719267
    37  H    3.866485   2.158989   3.207602   4.138185   3.483678
    38  H    3.866486   2.158990   3.207603   4.138186   3.483678
    39  H    4.320824   2.156656   2.598276   3.684421   2.370561
                   36         37         38         39
    36  C    0.000000
    37  H    1.096320   0.000000
    38  H    1.096320   1.764002   0.000000
    39  H    1.093180   1.773388   1.773388   0.000000
 Stoichiometry    C19H16O4
 Framework group  C1[X(C19H16O4)]
 Deg. of freedom   111
 Full point group                 C1      NOp   1
 Largest Abelian subgroup         C1      NOp   1
 Largest concise Abelian subgroup C1      NOp   1
                         Standard orientation:                         
 ---------------------------------------------------------------------
 Center     Atomic      Atomic             Coordinates (Angstroms)
 Number     Number       Type             X           Y           Z
 ---------------------------------------------------------------------
      1          6           0       -3.844898   -1.049141   -0.000190
      2          6           0       -3.755945    0.349277    0.000031
      3          6           0       -4.848483    1.200922    0.000149
      4          6           0       -6.099014    0.592232    0.000032
      5          6           0       -6.229415   -0.810099   -0.000193
      6          6           0       -5.114407   -1.633584   -0.000304
      7          6           0       -2.483997   -1.515115   -0.000244
      8          6           0       -1.696368   -0.408823   -0.000053
      9          1           0       -4.751585    2.279674    0.000322
     10          1           0       -7.223825   -1.250852   -0.000280
     11          1           0       -5.233292   -2.712507   -0.000478
     12          1           0       -2.148169   -2.541905   -0.000424
     13          8           0       -7.185167    1.412201    0.000144
     14          1           0       -7.986913    0.876496    0.000043
     15          8           0       -2.456583    0.737672    0.000114
     16          6           0       -0.249841   -0.221274   -0.000015
     17          6           0        0.296090    1.061288   -0.000065
     18          6           0        0.607767   -1.321392    0.000062
     19          6           0        1.676528    1.227596   -0.000044
     20          1           0       -0.360059    1.926120   -0.000124
     21          6           0        1.987229   -1.140325    0.000077
     22          1           0        0.204152   -2.330820    0.000131
     23          6           0        2.575076    0.140369    0.000023
     24          8           0        2.814799   -2.217973    0.000154
     25          1           0        2.281438   -3.021635    0.000195
     26          8           0        2.219875    2.474680   -0.000094
     27          1           0        1.507703    3.124701   -0.000133
     28          6           0        4.011075    0.424519    0.000039
     29          1           0        4.232240    1.486949    0.000020
     30          6           0        5.045717   -0.435615    0.000068
     31          1           0        4.870451   -1.504708    0.000084
     32          6           0        6.453194   -0.020674    0.000079
     33          6           0        7.416063   -0.953014    0.000107
     34          1           0        7.177599   -2.013474    0.000122
     35          1           0        8.469671   -0.688163    0.000116
     36          6           0        6.788090    1.448820    0.000058
     37          1           0        6.370222    1.948174   -0.881957
     38          1           0        6.370200    1.948205    0.882045
     39          1           0        7.870013    1.605299    0.000069
 ---------------------------------------------------------------------
 Rotational constants (GHZ):           1.0048253           0.0848033           0.0782413
 Standard basis: 6-31G(d) (6D, 7F)
 There are   377 symmetry adapted cartesian basis functions of A   symmetry.
 There are   377 symmetry adapted basis functions of A   symmetry.
   377 basis functions,   708 primitive gaussians,   377 cartesian basis functions
    81 alpha electrons       81 beta electrons
       nuclear repulsion energy      1706.9159216519 Hartrees.
 NAtoms=   39 NActive=   39 NUniq=   39 SFac= 1.00D+00 NAtFMM=   60 NAOKFM=F Big=F
 Integral buffers will be    131072 words long.
 Raffenetti 2 integral format.
 Two-electron integral symmetry is turned on.
 Nuclear repulsion after empirical dispersion term =     1706.8916905108 Hartrees.
 Using the following non-standard input for PCM:
 --- end of non-standard input.
 ------------------------------------------------------------------------------
 Polarizable Continuum Model (PCM)
 =================================
 Model                : C-PCM.
 Atomic radii         : UFF (Universal Force Field).
 Polarization charges : Total charges.
 Charge compensation  : None.
 Solution method      : On-the-fly selection.
 Cavity type          : Scaled VdW (van der Waals Surface) (Alpha=1.100).
 Cavity algorithm     : GePol (No added spheres)
                        Default sphere list used, NSphG=   39.
                        Lebedev-Laikov grids with approx.  5.0 points / Ang**2.
                        Smoothing algorithm: York/Karplus (Gamma=1.0000).
                        Polarization charges: spherical gaussians, with
                                              point-specific exponents (IZeta= 3).
                        Self-potential: point-specific (ISelfS= 7).
                        Self-field    : sphere-specific E.n sum rule (ISelfD= 2).
 1st derivatives      : Analytical E(r).r(x)/FMM algorithm (CHGder, D1EAlg=3).
                        Cavity 1st derivative terms included.
 Solvent              : Water, Eps=  78.355300 Eps(inf)=   1.777849
 ------------------------------------------------------------------------------
 One-electron integrals computed using PRISM.
 NBasis=   377 RedAO= T EigKep=  3.28D-04  NBF=   377
 NBsUse=   377 1.00D-06 EigRej= -1.00D+00 NBFU=   377
 ExpMin= 1.61D-01 ExpMax= 5.48D+03 ExpMxC= 8.25D+02 IAcc=3 IRadAn=         5 AccDes= 0.00D+00
 Harris functional with IExCor= 4639 and IRadAn=       5 diagonalized for initial guess.
 HarFok:  IExCor= 4639 AccDes= 0.00D+00 IRadAn=         5 IDoV= 1 UseB2=F ITyADJ=14
 ICtDFT=  3500011 ScaDFX=  1.000000  1.000000  1.000000  1.000000
 FoFCou: FMM=F IPFlag=           0 FMFlag=      100000 FMFlg1=           0
         NFxFlg=           0 DoJE=T BraDBF=F KetDBF=T FulRan=T
         wScrn=  0.000000 ICntrl=       500 IOpCl=  0 I1Cent=   200000004 NGrid=           0
         NMat0=    1 NMatS0=      1 NMatT0=    0 NMatD0=    1 NMtDS0=    0 NMtDT0=    0
 Petite list used in FoFCou.
 Requested convergence on RMS density matrix=1.00D-08 within 128 cycles.
 Requested convergence on MAX density matrix=1.00D-06.
 Requested convergence on             energy=1.00D-06.
 No special actions if energy rises.
 Inv3:  Mode=1 IEnd=    27579072.
 Iteration    1 A*A^-1 deviation from unit magnitude is 3.77D-15 for   1277.
 Iteration    1 A*A^-1 deviation from orthogonality  is 2.51D-15 for   2766   2514.
 Iteration    1 A^-1*A deviation from unit magnitude is 3.77D-15 for   1277.
 Iteration    1 A^-1*A deviation from orthogonality  is 2.08D-15 for   2762   2526.
 Error on total polarization charges =  0.00993
 SCF Done:  E(RwB97XD) =  -1034.18789647     A.U. after   14 cycles
            NFock= 14  Conv=0.83D-08     -V/T= 2.0090

 **********************************************************************

            Population analysis using the SCF density.

 **********************************************************************

 Orbital symmetries:
       Occupied  (A) (A) (A) (A) (A) (A) (A) (A) (A) (A) (A) (A)
                 (A) (A) (A) (A) (A) (A) (A) (A) (A) (A) (A) (A)
                 (A) (A) (A) (A) (A) (A) (A) (A) (A) (A) (A) (A)
                 (A) (A) (A) (A) (A) (A) (A) (A) (A) (A) (A) (A)
                 (A) (A) (A) (A) (A) (A) (A) (A) (A) (A) (A) (A)
                 (A) (A) (A) (A) (A) (A) (A) (A) (A) (A) (A) (A)
                 (A) (A) (A) (A) (A) (A) (A) (A) (A)
       Virtual   (A) (A) (A) (A) (A) (A) (A) (A) (A) (A) (A) (A)
                 (A) (A) (A) (A) (A) (A) (A) (A) (A) (A) (A) (A)
                 (A) (A) (A) (A) (A) (A) (A) (A) (A) (A) (A) (A)
                 (A) (A) (A) (A) (A) (A) (A) (A) (A) (A) (A) (A)
                 (A) (A) (A) (A) (A) (A) (A) (A) (A) (A) (A) (A)
                 (A) (A) (A) (A) (A) (A) (A) (A) (A) (A) (A) (A)
                 (A) (A) (A) (A) (A) (A) (A) (A) (A) (A) (A) (A)
                 (A) (A) (A) (A) (A) (A) (A) (A) (A) (A) (A) (A)
                 (A) (A) (A) (A) (A) (A) (A) (A) (A) (A) (A) (A)
                 (A) (A) (A) (A) (A) (A) (A) (A) (A) (A) (A) (A)
                 (A) (A) (A) (A) (A) (A) (A) (A) (A) (A) (A) (A)
                 (A) (A) (A) (A) (A) (A) (A) (A) (A) (A) (A) (A)
                 (A) (A) (A) (A) (A) (A) (A) (A) (A) (A) (A) (A)
                 (A) (A) (A) (A) (A) (A) (A) (A) (A) (A) (A) (A)
                 (A) (A) (A) (A) (A) (A) (A) (A) (A) (A) (A) (A)
                 (A) (A) (A) (A) (A) (A) (A) (A) (A) (A) (A) (A)
                 (A) (A) (A) (A) (A) (A) (A) (A) (A) (A) (A) (A)
                 (A) (A) (A) (A) (A) (A) (A) (A) (A) (A) (A) (A)
                 (A) (A) (A) (A) (A) (A) (A) (A) (A) (A) (A) (A)
                 (A) (A) (A) (A) (A) (A) (A) (A) (A) (A) (A) (A)
                 (A) (A) (A) (A) (A) (A) (A) (A) (A) (A) (A) (A)
                 (A) (A) (A) (A) (A) (A) (A) (A) (A) (A) (A) (A)
                 (A) (A) (A) (A) (A) (A) (A) (A) (A) (A) (A) (A)
                 (A) (A) (A) (A) (A) (A) (A) (A) (A) (A) (A) (A)
                 (A) (A) (A) (A) (A) (A) (A) (A)
 The electronic state is 1-A.
 Alpha  occ. eigenvalues --  -19.34289 -19.31092 -19.30912 -19.30544 -10.37563
 Alpha  occ. eigenvalues --  -10.37401 -10.37187 -10.36816 -10.36394 -10.33110
 Alpha  occ. eigenvalues --  -10.31448 -10.31333 -10.30953 -10.30900 -10.30719
 Alpha  occ. eigenvalues --  -10.30522 -10.30521 -10.30354 -10.30232 -10.30147
 Alpha  occ. eigenvalues --  -10.29490 -10.28872 -10.28663  -1.22288  -1.17517
 Alpha  occ. eigenvalues --   -1.17223  -1.16781  -0.97065  -0.96190  -0.92548
 Alpha  occ. eigenvalues --   -0.90947  -0.88688  -0.85710  -0.84160  -0.83988
 Alpha  occ. eigenvalues --   -0.81011  -0.78359  -0.75011  -0.74541  -0.72084
 Alpha  occ. eigenvalues --   -0.70127  -0.69062  -0.66919  -0.66038  -0.63514
 Alpha  occ. eigenvalues --   -0.62149  -0.60844  -0.59103  -0.58350  -0.57136
 Alpha  occ. eigenvalues --   -0.56176  -0.56149  -0.55170  -0.54158  -0.53268
 Alpha  occ. eigenvalues --   -0.52448  -0.52413  -0.51649  -0.50090  -0.49900
 Alpha  occ. eigenvalues --   -0.49623  -0.48701  -0.48549  -0.47702  -0.46897
 Alpha  occ. eigenvalues --   -0.46748  -0.45782  -0.45318  -0.44238  -0.43953
 Alpha  occ. eigenvalues --   -0.43098  -0.42593  -0.41737  -0.40269  -0.40074
 Alpha  occ. eigenvalues --   -0.36830  -0.34292  -0.32082  -0.30039  -0.29116
 Alpha  occ. eigenvalues --   -0.25723
 Alpha virt. eigenvalues --    0.00154   0.05383   0.07816   0.08328   0.10375
 Alpha virt. eigenvalues --    0.14965   0.16014   0.17218   0.17832   0.18008
 Alpha virt. eigenvalues --    0.18623   0.19103   0.19898   0.21667   0.21846
 Alpha virt. eigenvalues --    0.22753   0.23324   0.24333   0.26015   0.26078
 Alpha virt. eigenvalues --    0.26515   0.26815   0.27431   0.28095   0.28616
 Alpha virt. eigenvalues --    0.29928   0.31450   0.32233   0.32594   0.33281
 Alpha virt. eigenvalues --    0.34502   0.36214   0.37257   0.38283   0.39632
 Alpha virt. eigenvalues --    0.40288   0.42722   0.43095   0.45252   0.45701
 Alpha virt. eigenvalues --    0.46728   0.47659   0.49347   0.50610   0.52043
 Alpha virt. eigenvalues --    0.54651   0.56204   0.56860   0.58176   0.58653
 Alpha virt. eigenvalues --    0.59111   0.59315   0.60489   0.60502   0.62078
 Alpha virt. eigenvalues --    0.62648   0.63918   0.64075   0.64373   0.65666
 Alpha virt. eigenvalues --    0.65904   0.66325   0.66648   0.67037   0.67540
 Alpha virt. eigenvalues --    0.67979   0.68293   0.68865   0.69531   0.70617
 Alpha virt. eigenvalues --    0.71454   0.72323   0.72632   0.73324   0.73869
 Alpha virt. eigenvalues --    0.74072   0.74700   0.75504   0.75797   0.77170
 Alpha virt. eigenvalues --    0.77289   0.79639   0.82206   0.82247   0.83708
 Alpha virt. eigenvalues --    0.83888   0.83942   0.84811   0.85349   0.85817
 Alpha virt. eigenvalues --    0.88916   0.89853   0.91163   0.91998   0.92595
 Alpha virt. eigenvalues --    0.93435   0.94053   0.94281   0.94536   0.96722
 Alpha virt. eigenvalues --    0.97065   0.97387   0.97580   0.98951   0.98970
 Alpha virt. eigenvalues --    1.00189   1.00624   1.01061   1.02469   1.03455
 Alpha virt. eigenvalues --    1.03468   1.04717   1.04911   1.05439   1.05995
 Alpha virt. eigenvalues --    1.06116   1.06546   1.06936   1.09233   1.10132
 Alpha virt. eigenvalues --    1.11528   1.13112   1.15075   1.15399   1.17250
 Alpha virt. eigenvalues --    1.17919   1.20358   1.20652   1.23620   1.26014
 Alpha virt. eigenvalues --    1.27091   1.27720   1.28830   1.29412   1.30322
 Alpha virt. eigenvalues --    1.30506   1.32108   1.35266   1.36359   1.36689
 Alpha virt. eigenvalues --    1.37221   1.38879   1.41378   1.41430   1.41992
 Alpha virt. eigenvalues --    1.42335   1.44140   1.44224   1.45772   1.46094
 Alpha virt. eigenvalues --    1.46330   1.47028   1.48052   1.48418   1.50236
 Alpha virt. eigenvalues --    1.51702   1.52297   1.53952   1.54381   1.55668
 Alpha virt. eigenvalues --    1.57938   1.58221   1.60273   1.61165   1.65285
 Alpha virt. eigenvalues --    1.66428   1.70236   1.72649   1.76899   1.77371
 Alpha virt. eigenvalues --    1.79909   1.80784   1.81308   1.81573   1.82395
 Alpha virt. eigenvalues --    1.82805   1.85159   1.85978   1.86920   1.88341
 Alpha virt. eigenvalues --    1.88884   1.90351   1.90934   1.90976   1.91793
 Alpha virt. eigenvalues --    1.94580   1.95484   1.96111   1.96441   1.98060
 Alpha virt. eigenvalues --    2.00245   2.01120   2.01783   2.02261   2.03074
 Alpha virt. eigenvalues --    2.04160   2.04169   2.05878   2.07071   2.07914
 Alpha virt. eigenvalues --    2.11346   2.11419   2.11730   2.12291   2.14668
 Alpha virt. eigenvalues --    2.15417   2.15660   2.20094   2.20726   2.24389
 Alpha virt. eigenvalues --    2.25590   2.26736   2.28377   2.29965   2.31676
 Alpha virt. eigenvalues --    2.32693   2.34142   2.34692   2.35574   2.36797
 Alpha virt. eigenvalues --    2.38490   2.39009   2.39356   2.41373   2.43449
 Alpha virt. eigenvalues --    2.43680   2.45179   2.46023   2.48623   2.50186
 Alpha virt. eigenvalues --    2.51029   2.52103   2.53400   2.53457   2.54271
 Alpha virt. eigenvalues --    2.55634   2.56532   2.57461   2.58781   2.60705
 Alpha virt. eigenvalues --    2.62113   2.66901   2.67387   2.68120   2.68383
 Alpha virt. eigenvalues --    2.70070   2.74581   2.75540   2.76525   2.77156
 Alpha virt. eigenvalues --    2.78188   2.82036   2.83913   2.86119   2.87931
 Alpha virt. eigenvalues --    2.90699   2.94642   2.97245   3.00695   3.01690
 Alpha virt. eigenvalues --    3.03369   3.04617   3.06111   3.09970   3.12241
 Alpha virt. eigenvalues --    3.14504   3.18947   3.25352   3.29300   3.32668
 Alpha virt. eigenvalues --    3.40231   3.54783   3.59854   4.02763   4.07383
 Alpha virt. eigenvalues --    4.09804   4.12480   4.19355   4.20113   4.21032
 Alpha virt. eigenvalues --    4.23957   4.24901   4.30419   4.32020   4.33624
 Alpha virt. eigenvalues --    4.34170   4.37941   4.43108   4.46744   4.54710
 Alpha virt. eigenvalues --    4.63466   4.63669   4.69678   4.82383   4.91983
 Alpha virt. eigenvalues --    4.96496
          Condensed to atoms (all electrons):
               1          2          3          4          5          6
     1  C    4.751419   0.526382  -0.077110  -0.024442  -0.026186   0.508604
     2  C    0.526382   4.592555   0.499137  -0.005263  -0.034319  -0.033589
     3  C   -0.077110   0.499137   5.182374   0.532604  -0.072149  -0.040473
     4  C   -0.024442  -0.005263   0.532604   4.464073   0.508554  -0.016718
     5  C   -0.026186  -0.034319  -0.072149   0.508554   5.125793   0.474440
     6  C    0.508604  -0.033589  -0.040473  -0.016718   0.474440   5.068006
     7  C    0.380862  -0.066765   0.017232  -0.000162   0.007203  -0.075752
     8  C   -0.012630  -0.077409  -0.002614   0.000120  -0.000158   0.007060
     9  H    0.004057  -0.023793   0.349585  -0.029923   0.004727  -0.000157
    10  H    0.001541   0.000606   0.003874  -0.034605   0.362429  -0.025602
    11  H   -0.029096   0.003737   0.000278   0.002213  -0.033083   0.365078
    12  H   -0.019517   0.003697  -0.000140   0.000006  -0.000030  -0.001575
    13  O    0.000331   0.001209  -0.047106   0.279713  -0.053671   0.004376
    14  H   -0.000037  -0.000096   0.005022  -0.028892  -0.001694   0.000611
    15  O   -0.037670   0.259027  -0.049881   0.002181  -0.000012   0.007245
    16  C    0.006375   0.003394  -0.000467   0.000002   0.000004  -0.000140
    17  C   -0.000364   0.000429   0.000015   0.000000  -0.000000  -0.000003
    18  C    0.000488  -0.000011   0.000003  -0.000000  -0.000000   0.000004
    19  C    0.000002   0.000005  -0.000000   0.000000   0.000000  -0.000000
    20  H    0.000040   0.000120  -0.000009  -0.000000   0.000000  -0.000001
    21  C   -0.000003   0.000001  -0.000000   0.000000   0.000000   0.000000
    22  H    0.000142  -0.000010  -0.000000   0.000000  -0.000000  -0.000000
    23  C    0.000000   0.000000   0.000000   0.000000   0.000000  -0.000000
    24  O   -0.000000  -0.000000  -0.000000   0.000000   0.000000  -0.000000
    25  H    0.000000   0.000000   0.000000  -0.000000   0.000000   0.000000
    26  O    0.000000  -0.000000  -0.000000  -0.000000  -0.000000   0.000000
    27  H   -0.000000   0.000000  -0.000000  -0.000000  -0.000000   0.000000
    28  C   -0.000000  -0.000000  -0.000000   0.000000  -0.000000  -0.000000
    29  H   -0.000000   0.000000   0.000000   0.000000   0.000000  -0.000000
    30  C   -0.000000   0.000000   0.000000  -0.000000   0.000000   0.000000
    31  H   -0.000000   0.000000   0.000000   0.000000   0.000000  -0.000000
    32  C    0.000000  -0.000000  -0.000000   0.000000   0.000000  -0.000000
    33  C   -0.000000  -0.000000   0.000000   0.000000   0.000000   0.000000
    34  H   -0.000000   0.000000   0.000000   0.000000   0.000000   0.000000
    35  H   -0.000000  -0.000000   0.000000   0.000000   0.000000   0.000000
    36  C   -0.000000   0.000000   0.000000   0.000000   0.000000   0.000000
    37  H    0.000000  -0.000000   0.000000  -0.000000   0.000000   0.000000
    38  H    0.000000  -0.000000   0.000000  -0.000000   0.000000   0.000000
    39  H   -0.000000   0.000000   0.000000   0.000000   0.000000   0.000000
               7          8          9         10         11         12
     1  C    0.380862  -0.012630   0.004057   0.001541  -0.029096  -0.019517
     2  C   -0.066765  -0.077409  -0.023793   0.000606   0.003737   0.003697
     3  C    0.017232  -0.002614   0.349585   0.003874   0.000278  -0.000140
     4  C   -0.000162   0.000120  -0.029923  -0.034605   0.002213   0.000006
     5  C    0.007203  -0.000158   0.004727   0.362429  -0.033083  -0.000030
     6  C   -0.075752   0.007060  -0.000157  -0.025602   0.365078  -0.001575
     7  C    5.326655   0.513189  -0.000228  -0.000126  -0.004283   0.357428
     8  C    0.513189   4.704128   0.000162   0.000003  -0.000082  -0.025713
     9  H   -0.000228   0.000162   0.493133  -0.000101   0.000012   0.000001
    10  H   -0.000126   0.000003  -0.000101   0.500954  -0.003227  -0.000001
    11  H   -0.004283  -0.000082   0.000012  -0.003227   0.495829   0.001295
    12  H    0.357428  -0.025713   0.000001  -0.000001   0.001295   0.465101
    13  O    0.000001  -0.000001  -0.000844  -0.004058  -0.000039  -0.000000
    14  H   -0.000001   0.000000  -0.000166   0.004816  -0.000007  -0.000000
    15  O   -0.115298   0.317529  -0.001291   0.000001  -0.000053   0.002333
    16  C   -0.067936   0.367096   0.000004  -0.000000   0.000001  -0.002793
    17  C    0.012003  -0.028295  -0.000001   0.000000   0.000000  -0.000097
    18  C   -0.018805  -0.033294   0.000000  -0.000000  -0.000000   0.001455
    19  C   -0.000138   0.003270   0.000000  -0.000000   0.000000   0.000004
    20  H    0.000282  -0.010116   0.000030  -0.000000   0.000000  -0.000005
    21  C    0.000136   0.003892  -0.000000  -0.000000  -0.000000   0.000130
    22  H    0.006122  -0.009835   0.000000  -0.000000   0.000000   0.001809
    23  C    0.000018   0.000870   0.000000  -0.000000  -0.000000  -0.000001
    24  O    0.000004  -0.000092   0.000000   0.000000   0.000000  -0.000001
    25  H    0.000002  -0.000007  -0.000000  -0.000000  -0.000000  -0.000002
    26  O   -0.000000  -0.000109   0.000000   0.000000   0.000000  -0.000000
    27  H   -0.000000  -0.000010  -0.000000   0.000000  -0.000000   0.000000
    28  C   -0.000000   0.000004  -0.000000  -0.000000   0.000000  -0.000000
    29  H    0.000000   0.000000   0.000000  -0.000000   0.000000   0.000000
    30  C   -0.000000   0.000000  -0.000000   0.000000   0.000000   0.000000
    31  H    0.000000   0.000000  -0.000000   0.000000  -0.000000   0.000000
    32  C    0.000000  -0.000000   0.000000   0.000000   0.000000  -0.000000
    33  C    0.000000  -0.000000  -0.000000   0.000000   0.000000   0.000000
    34  H    0.000000   0.000000   0.000000   0.000000   0.000000   0.000000
    35  H    0.000000  -0.000000   0.000000   0.000000   0.000000   0.000000
    36  C    0.000000   0.000000  -0.000000   0.000000   0.000000   0.000000
    37  H    0.000000   0.000000  -0.000000   0.000000   0.000000   0.000000
    38  H    0.000000   0.000000  -0.000000   0.000000   0.000000   0.000000
    39  H    0.000000   0.000000  -0.000000   0.000000   0.000000   0.000000
              13         14         15         16         17         18
     1  C    0.000331  -0.000037  -0.037670   0.006375  -0.000364   0.000488
     2  C    0.001209  -0.000096   0.259027   0.003394   0.000429  -0.000011
     3  C   -0.047106   0.005022  -0.049881  -0.000467   0.000015   0.000003
     4  C    0.279713  -0.028892   0.002181   0.000002   0.000000  -0.000000
     5  C   -0.053671  -0.001694  -0.000012   0.000004  -0.000000  -0.000000
     6  C    0.004376   0.000611   0.007245  -0.000140  -0.000003   0.000004
     7  C    0.000001  -0.000001  -0.115298  -0.067936   0.012003  -0.018805
     8  C   -0.000001   0.000000   0.317529   0.367096  -0.028295  -0.033294
     9  H   -0.000844  -0.000166  -0.001291   0.000004  -0.000001   0.000000
    10  H   -0.004058   0.004816   0.000001  -0.000000   0.000000  -0.000000
    11  H   -0.000039  -0.000007  -0.000053   0.000001   0.000000  -0.000000
    12  H   -0.000000  -0.000000   0.002333  -0.002793  -0.000097   0.001455
    13  O    8.245310   0.256393  -0.000008  -0.000000  -0.000000   0.000000
    14  H    0.256393   0.311357   0.000001   0.000000   0.000000  -0.000000
    15  O   -0.000008   0.000001   8.197998  -0.043072  -0.004991   0.002993
    16  C   -0.000000   0.000000  -0.043072   4.798488   0.422763   0.500680
    17  C   -0.000000   0.000000  -0.004991   0.422763   5.386313  -0.105398
    18  C    0.000000  -0.000000   0.002993   0.500680  -0.105398   5.309466
    19  C   -0.000000  -0.000000   0.000391   0.007098   0.436111  -0.050159
    20  H    0.000000  -0.000000   0.010774  -0.025311   0.354337   0.004802
    21  C   -0.000000   0.000000  -0.000047   0.005299  -0.053725   0.479596
    22  H   -0.000000   0.000000   0.000016  -0.019008   0.005066   0.346570
    23  C   -0.000000   0.000000   0.000006  -0.015273  -0.062705  -0.076821
    24  O    0.000000  -0.000000   0.000000   0.004121   0.000536  -0.060067
    25  H    0.000000  -0.000000   0.000000   0.000791  -0.000000  -0.002915
    26  O    0.000000   0.000000   0.000000   0.004450  -0.062215   0.000547
    27  H    0.000000   0.000000  -0.000007   0.000941  -0.002264  -0.000020
    28  C    0.000000   0.000000  -0.000000  -0.001170   0.010585   0.009095
    29  H    0.000000  -0.000000   0.000000  -0.000013   0.000611  -0.000145
    30  C    0.000000   0.000000  -0.000000   0.000033  -0.000275  -0.000243
    31  H    0.000000   0.000000  -0.000000  -0.000010   0.000008   0.000263
    32  C    0.000000   0.000000   0.000000  -0.000000   0.000001   0.000004
    33  C    0.000000   0.000000   0.000000  -0.000000   0.000000  -0.000000
    34  H    0.000000   0.000000   0.000000   0.000000  -0.000000  -0.000000
    35  H    0.000000   0.000000   0.000000   0.000000   0.000000   0.000000
    36  C    0.000000   0.000000  -0.000000   0.000000  -0.000000  -0.000000
    37  H    0.000000   0.000000  -0.000000   0.000000  -0.000000   0.000000
    38  H    0.000000   0.000000  -0.000000   0.000000  -0.000000   0.000000
    39  H    0.000000   0.000000  -0.000000   0.000000   0.000000  -0.000000
              19         20         21         22         23         24
     1  C    0.000002   0.000040  -0.000003   0.000142   0.000000  -0.000000
     2  C    0.000005   0.000120   0.000001  -0.000010   0.000000  -0.000000
     3  C   -0.000000  -0.000009  -0.000000  -0.000000   0.000000  -0.000000
     4  C    0.000000  -0.000000   0.000000   0.000000   0.000000   0.000000
     5  C    0.000000   0.000000   0.000000  -0.000000   0.000000   0.000000
     6  C   -0.000000  -0.000001   0.000000  -0.000000  -0.000000  -0.000000
     7  C   -0.000138   0.000282   0.000136   0.006122   0.000018   0.000004
     8  C    0.003270  -0.010116   0.003892  -0.009835   0.000870  -0.000092
     9  H    0.000000   0.000030  -0.000000   0.000000   0.000000   0.000000
    10  H   -0.000000  -0.000000  -0.000000  -0.000000  -0.000000   0.000000
    11  H    0.000000   0.000000  -0.000000   0.000000  -0.000000   0.000000
    12  H    0.000004  -0.000005   0.000130   0.001809  -0.000001  -0.000001
    13  O   -0.000000   0.000000  -0.000000  -0.000000  -0.000000   0.000000
    14  H   -0.000000  -0.000000   0.000000   0.000000   0.000000  -0.000000
    15  O    0.000391   0.010774  -0.000047   0.000016   0.000006   0.000000
    16  C    0.007098  -0.025311   0.005299  -0.019008  -0.015273   0.004121
    17  C    0.436111   0.354337  -0.053725   0.005066  -0.062705   0.000536
    18  C   -0.050159   0.004802   0.479596   0.346570  -0.076821  -0.060067
    19  C    4.633687  -0.033957  -0.009612   0.000319   0.509592   0.003045
    20  H   -0.033957   0.495272   0.000334  -0.000118   0.002981   0.000002
    21  C   -0.009612   0.000334   4.612414  -0.033437   0.512445   0.282786
    22  H    0.000319  -0.000118  -0.033437   0.502841   0.003118  -0.003742
    23  C    0.509592   0.002981   0.512445   0.003118   4.873379  -0.051673
    24  O    0.003045   0.000002   0.282786  -0.003742  -0.051673   8.244920
    25  H   -0.000115  -0.000000  -0.027926   0.005754   0.005849   0.254572
    26  O    0.296028  -0.003845   0.003255   0.000002  -0.059793  -0.000009
    27  H   -0.029968   0.004892  -0.000045  -0.000000   0.005525   0.000001
    28  C   -0.057760  -0.000092  -0.062019  -0.000115   0.361913  -0.007534
    29  H   -0.011992  -0.000006   0.004709   0.000001  -0.038955  -0.000022
    30  C    0.005622   0.000001  -0.017164   0.000003  -0.011918  -0.008541
    31  H   -0.000085  -0.000000   0.001944   0.000002  -0.009685   0.014113
    32  C   -0.000146  -0.000000   0.000289  -0.000000   0.002638   0.000504
    33  C    0.000002   0.000000   0.000009   0.000000  -0.000245  -0.000040
    34  H    0.000000   0.000000  -0.000003   0.000000   0.000011  -0.000023
    35  H   -0.000000  -0.000000   0.000000  -0.000000   0.000002  -0.000000
    36  C   -0.000013  -0.000000  -0.000006  -0.000000   0.000529  -0.000001
    37  H   -0.000008   0.000000   0.000000  -0.000000  -0.000001  -0.000000
    38  H   -0.000008   0.000000   0.000000  -0.000000  -0.000001  -0.000000
    39  H   -0.000000  -0.000000   0.000000   0.000000   0.000000   0.000000
              25         26         27         28         29         30
     1  C    0.000000   0.000000  -0.000000  -0.000000  -0.000000  -0.000000
     2  C    0.000000  -0.000000   0.000000  -0.000000   0.000000   0.000000
     3  C    0.000000  -0.000000  -0.000000  -0.000000   0.000000   0.000000
     4  C   -0.000000  -0.000000  -0.000000   0.000000   0.000000  -0.000000
     5  C    0.000000  -0.000000  -0.000000  -0.000000   0.000000   0.000000
     6  C    0.000000   0.000000   0.000000  -0.000000  -0.000000   0.000000
     7  C    0.000002  -0.000000  -0.000000  -0.000000   0.000000  -0.000000
     8  C   -0.000007  -0.000109  -0.000010   0.000004   0.000000   0.000000
     9  H   -0.000000   0.000000  -0.000000  -0.000000   0.000000  -0.000000
    10  H   -0.000000   0.000000   0.000000  -0.000000  -0.000000   0.000000
    11  H   -0.000000   0.000000  -0.000000   0.000000   0.000000   0.000000
    12  H   -0.000002  -0.000000   0.000000  -0.000000   0.000000   0.000000
    13  O    0.000000   0.000000   0.000000   0.000000   0.000000   0.000000
    14  H   -0.000000   0.000000   0.000000   0.000000  -0.000000   0.000000
    15  O    0.000000   0.000000  -0.000007  -0.000000   0.000000  -0.000000
    16  C    0.000791   0.004450   0.000941  -0.001170  -0.000013   0.000033
    17  C   -0.000000  -0.062215  -0.002264   0.010585   0.000611  -0.000275
    18  C   -0.002915   0.000547  -0.000020   0.009095  -0.000145  -0.000243
    19  C   -0.000115   0.296028  -0.029968  -0.057760  -0.011992   0.005622
    20  H   -0.000000  -0.003845   0.004892  -0.000092  -0.000006   0.000001
    21  C   -0.027926   0.003255  -0.000045  -0.062019   0.004709  -0.017164
    22  H    0.005754   0.000002  -0.000000  -0.000115   0.000001   0.000003
    23  C    0.005849  -0.059793   0.005525   0.361913  -0.038955  -0.011918
    24  O    0.254572  -0.000009   0.000001  -0.007534  -0.000022  -0.008541
    25  H    0.306785   0.000001  -0.000000  -0.000183   0.000007   0.000438
    26  O    0.000001   8.236243   0.257489  -0.008626   0.013437   0.000587
    27  H   -0.000000   0.257489   0.306677   0.000055  -0.000322   0.000002
    28  C   -0.000183  -0.008626   0.000055   5.088808   0.372956   0.584395
    29  H    0.000007   0.013437  -0.000322   0.372956   0.531062  -0.054448
    30  C    0.000438   0.000587   0.000002   0.584395  -0.054448   5.035936
    31  H   -0.000070  -0.000003   0.000000  -0.038432   0.004302   0.364468
    32  C   -0.000011   0.000003  -0.000001  -0.031552  -0.012129   0.421332
    33  C    0.000000   0.000000  -0.000000   0.004490   0.000422  -0.034674
    34  H    0.000002  -0.000000   0.000000   0.000116  -0.000001  -0.008056
    35  H    0.000000   0.000000  -0.000000  -0.000159  -0.000003   0.003876
    36  C    0.000000  -0.000039   0.000001  -0.010022   0.006154  -0.064557
    37  H   -0.000000   0.000004  -0.000000   0.001571   0.001353  -0.002724
    38  H   -0.000000   0.000004  -0.000000   0.001571   0.001353  -0.002724
    39  H   -0.000000  -0.000000   0.000000   0.000311  -0.000027   0.003573
              31         32         33         34         35         36
     1  C   -0.000000   0.000000  -0.000000  -0.000000  -0.000000  -0.000000
     2  C    0.000000  -0.000000  -0.000000   0.000000  -0.000000   0.000000
     3  C    0.000000  -0.000000   0.000000   0.000000   0.000000   0.000000
     4  C    0.000000   0.000000   0.000000   0.000000   0.000000   0.000000
     5  C    0.000000   0.000000   0.000000   0.000000   0.000000   0.000000
     6  C   -0.000000  -0.000000   0.000000   0.000000   0.000000   0.000000
     7  C    0.000000   0.000000   0.000000   0.000000   0.000000   0.000000
     8  C    0.000000  -0.000000  -0.000000   0.000000  -0.000000   0.000000
     9  H   -0.000000   0.000000  -0.000000   0.000000   0.000000  -0.000000
    10  H    0.000000   0.000000   0.000000   0.000000   0.000000   0.000000
    11  H   -0.000000   0.000000   0.000000   0.000000   0.000000   0.000000
    12  H    0.000000  -0.000000   0.000000   0.000000   0.000000   0.000000
    13  O    0.000000   0.000000   0.000000   0.000000   0.000000   0.000000
    14  H    0.000000   0.000000   0.000000   0.000000   0.000000   0.000000
    15  O   -0.000000   0.000000   0.000000   0.000000   0.000000  -0.000000
    16  C   -0.000010  -0.000000  -0.000000   0.000000   0.000000   0.000000
    17  C    0.000008   0.000001   0.000000  -0.000000   0.000000  -0.000000
    18  C    0.000263   0.000004  -0.000000  -0.000000   0.000000  -0.000000
    19  C   -0.000085  -0.000146   0.000002   0.000000  -0.000000  -0.000013
    20  H   -0.000000  -0.000000   0.000000   0.000000  -0.000000  -0.000000
    21  C    0.001944   0.000289   0.000009  -0.000003   0.000000  -0.000006
    22  H    0.000002  -0.000000   0.000000   0.000000  -0.000000  -0.000000
    23  C   -0.009685   0.002638  -0.000245   0.000011   0.000002   0.000529
    24  O    0.014113   0.000504  -0.000040  -0.000023  -0.000000  -0.000001
    25  H   -0.000070  -0.000011   0.000000   0.000002   0.000000   0.000000
    26  O   -0.000003   0.000003   0.000000  -0.000000   0.000000  -0.000039
    27  H    0.000000  -0.000001  -0.000000   0.000000  -0.000000   0.000001
    28  C   -0.038432  -0.031552   0.004490   0.000116  -0.000159  -0.010022
    29  H    0.004302  -0.012129   0.000422  -0.000001  -0.000003   0.006154
    30  C    0.364468   0.421332  -0.034674  -0.008056   0.003876  -0.064557
    31  H    0.513254  -0.042213  -0.006568   0.005492   0.000048   0.004612
    32  C   -0.042213   4.607411   0.628215  -0.033323  -0.024736   0.371103
    33  C   -0.006568   0.628215   5.224623   0.371212   0.368430  -0.065598
    34  H    0.005492  -0.033323   0.371212   0.519137  -0.033141   0.005316
    35  H    0.000048  -0.024736   0.368430  -0.033141   0.515592  -0.007197
    36  C    0.004612   0.371103  -0.065598   0.005316  -0.007197   5.224089
    37  H   -0.000071  -0.028387   0.000128  -0.000152   0.000154   0.369852
    38  H   -0.000071  -0.028387   0.000128  -0.000152   0.000154   0.369852
    39  H   -0.000083  -0.030394  -0.003816   0.000086   0.004788   0.376791
              37         38         39
     1  C    0.000000   0.000000  -0.000000
     2  C   -0.000000  -0.000000   0.000000
     3  C    0.000000   0.000000   0.000000
     4  C   -0.000000  -0.000000   0.000000
     5  C    0.000000   0.000000   0.000000
     6  C    0.000000   0.000000   0.000000
     7  C    0.000000   0.000000   0.000000
     8  C    0.000000   0.000000   0.000000
     9  H   -0.000000  -0.000000  -0.000000
    10  H    0.000000   0.000000   0.000000
    11  H    0.000000   0.000000   0.000000
    12  H    0.000000   0.000000   0.000000
    13  O    0.000000   0.000000   0.000000
    14  H    0.000000   0.000000   0.000000
    15  O   -0.000000  -0.000000  -0.000000
    16  C    0.000000   0.000000   0.000000
    17  C   -0.000000  -0.000000   0.000000
    18  C    0.000000   0.000000  -0.000000
    19  C   -0.000008  -0.000008  -0.000000
    20  H    0.000000   0.000000  -0.000000
    21  C    0.000000   0.000000   0.000000
    22  H   -0.000000  -0.000000   0.000000
    23  C   -0.000001  -0.000001   0.000000
    24  O   -0.000000  -0.000000   0.000000
    25  H   -0.000000  -0.000000  -0.000000
    26  O    0.000004   0.000004  -0.000000
    27  H   -0.000000  -0.000000   0.000000
    28  C    0.001571   0.001571   0.000311
    29  H    0.001353   0.001353  -0.000027
    30  C   -0.002724  -0.002724   0.003573
    31  H   -0.000071  -0.000071  -0.000083
    32  C   -0.028387  -0.028387  -0.030394
    33  C    0.000128   0.000128  -0.003816
    34  H   -0.000152  -0.000152   0.000086
    35  H    0.000154   0.000154   0.004788
    36  C    0.369852   0.369852   0.376791
    37  H    0.532115  -0.032897  -0.024695
    38  H   -0.032897   0.532114  -0.024695
    39  H   -0.024695  -0.024695   0.515161
 Mulliken charges:
               1
     1  C    0.046813
     2  C    0.350958
     3  C   -0.300174
     4  C    0.350539
     5  C   -0.261849
     6  C   -0.241413
     7  C   -0.271643
     8  C    0.283040
     9  H    0.204794
    10  H    0.193495
    11  H    0.201426
    12  H    0.216617
    13  O   -0.681606
    14  H    0.452694
    15  O   -0.548164
    16  C    0.053653
    17  C   -0.308446
    18  C   -0.308087
    19  C    0.298785
    20  H    0.199594
    21  C    0.296747
    22  H    0.194500
    23  C    0.048194
    24  O   -0.672859
    25  H    0.457029
    26  O   -0.677411
    27  H    0.457054
    28  C   -0.218207
    29  H    0.181697
    30  C   -0.214943
    31  H    0.188787
    32  C    0.199778
    33  C   -0.486717
    34  H    0.173481
    35  H    0.172193
    36  C   -0.580865
    37  H    0.183759
    38  H    0.183759
    39  H    0.182999
 Sum of Mulliken charges =  -0.00000
 Mulliken charges with hydrogens summed into heavy atoms:
               1
     1  C    0.046813
     2  C    0.350958
     3  C   -0.095380
     4  C    0.350539
     5  C   -0.068354
     6  C   -0.039987
     7  C   -0.055026
     8  C    0.283040
    13  O   -0.228912
    15  O   -0.548164
    16  C    0.053653
    17  C   -0.108852
    18  C   -0.113587
    19  C    0.298785
    21  C    0.296747
    23  C    0.048194
    24  O   -0.215830
    26  O   -0.220357
    28  C   -0.036511
    30  C   -0.026156
    32  C    0.199778
    33  C   -0.141043
    36  C   -0.030348
 Electronic spatial extent (au):  <R**2>=          12792.0458
 Charge=             -0.0000 electrons
 Dipole moment (field-independent basis, Debye):
    X=             -4.7388    Y=             -2.5351    Z=             -0.0005  Tot=              5.3743
 Quadrupole moment (field-independent basis, Debye-Ang):
   XX=           -112.2073   YY=           -107.9927   ZZ=           -139.0774
   XY=             11.6893   XZ=              0.0026   YZ=              0.0000
 Traceless Quadrupole moment (field-independent basis, Debye-Ang):
   XX=              7.5519   YY=             11.7664   ZZ=            -19.3183
   XY=             11.6893   XZ=              0.0026   YZ=              0.0000
 Octapole moment (field-independent basis, Debye-Ang**2):
  XXX=           -339.6684  YYY=            -16.7966  ZZZ=              0.0021  XYY=             13.0983
  XXY=            -59.4892  XXZ=             -0.0163  XZZ=             -6.6772  YZZ=              7.7981
  YYZ=             -0.0022  XYZ=             -0.0052
 Hexadecapole moment (field-independent basis, Debye-Ang**3):
 XXXX=         -12252.8238 YYYY=          -1067.1980 ZZZZ=           -143.3633 XXXY=            543.7987
 XXXZ=              0.0452 YYYX=            -31.9391 YYYZ=             -0.0183 ZZZX=             -0.0933
 ZZZY=             -0.0193 XXYY=          -2794.6946 XXZZ=          -2815.2096 YYZZ=           -265.6520
 XXYZ=              0.0079 YYXZ=             -0.0075 ZZXY=            -11.8957
 N-N= 1.706891690511D+03 E-N=-5.822488654750D+03  KE= 1.024967644464D+03
 D1PCM: C-PCM CHGder 1st derivatives, ID1Alg=3 FixD1E=F DoIter=F DoCFld=F I1PDM=0.
 Calling FoFJK, ICntrl=      2127 FMM=F ISym2X=0 I1Cent= 0 IOpClX= 0 NMat=1 NMatS=1 NMatT=0.
 ***** Axes restored to original set *****
 -------------------------------------------------------------------
 Center     Atomic                   Forces (Hartrees/Bohr)
 Number     Number              X              Y              Z
 -------------------------------------------------------------------
      1        6           0.001147801    0.001140490    0.000000134
      2        6           0.000018004   -0.000560638    0.000000005
      3        6          -0.000012394    0.001071090    0.000000213
      4        6          -0.000898002    0.000811023   -0.000000030
      5        6          -0.001246439   -0.001542405   -0.000000078
      6        6          -0.000964576   -0.000846055   -0.000000381
      7        6           0.000559089   -0.001014517   -0.000000170
      8        6           0.000157927   -0.001029990   -0.000000255
      9        1           0.000400435    0.000401962    0.000000040
     10        1           0.000462548    0.000333972    0.000000007
     11        1           0.000001975    0.000153039    0.000000087
     12        1          -0.000073847   -0.000210029    0.000000332
     13        8           0.002083646   -0.000160812    0.000000063
     14        1          -0.002035651   -0.000492538   -0.000000092
     15        8           0.000010850    0.001687146    0.000000280
     16        6           0.001288493   -0.000159206   -0.000000149
     17        6          -0.001315024    0.001369123    0.000000110
     18        6          -0.001454843   -0.002061972    0.000000378
     19        6           0.000415007    0.002670986   -0.000000162
     20        1           0.000918824    0.000350865   -0.000000024
     21        6           0.001067889   -0.002626099    0.000000031
     22        1           0.000618474    0.000359680   -0.000000383
     23        6          -0.000255739    0.000193652    0.000000048
     24        8          -0.000708229    0.003003548   -0.000000036
     25        1          -0.000301984   -0.002316429    0.000000069
     26        8           0.000099871   -0.002303059    0.000000072
     27        1          -0.000790116    0.001909657   -0.000000082
     28        6          -0.001269365    0.000043569   -0.000000117
     29        1           0.000370447    0.000165918    0.000000052
     30        6           0.000869851   -0.000368376    0.000000034
     31        1          -0.000064081   -0.000311170   -0.000000002
     32        6           0.000000054    0.000937908   -0.000000038
     33        6           0.000805729   -0.000951066    0.000000083
     34        1          -0.000082770   -0.000334439    0.000000002
     35        1           0.000105928    0.000144215   -0.000000012
     36        6           0.000241378    0.000196235   -0.000000010
     37        1          -0.000033102    0.000188579    0.000093513
[...]
 .00000348,-0.00000256,0.,-0.00001564,0.00000883,0.,0.00000227,0.000003
 17,0.,0.00001305,-0.00002852,0.,0.00003557,0.00006295,0.,0.00002493,-0
 .00001280,0.,-0.00000388,-0.00004295,0.,0.00000365,0.00000672,0.,0.000
 15782,-0.00031540,0.,0.00007676,-0.00000213,0.,0.00059529,0.00222673,0
 .00000012,-0.00082561,-0.00032859,0.00000001,0.00840204,0.02321103,0.0
 0000014,-0.07509127,-0.06677013,-0.00000077,0.07062185,0.00000843,0.00
 000275,0.,0.00000858,-0.00000049,0.,-0.00000253,0.00000324,0.,-0.00000
 164,0.00001216,0.,0.00000521,-0.00001104,0.,-0.00000983,-0.00000186,0.
 ,0.00000041,0.00000023,0.,-0.00001438,0.00000542,0.,0.00000009,-0.0000
 0069,0.,0.00000105,-0.00000023,0.,0.00000007,0.00000080,0.,-0.00000077
 ,-0.00000069,0.,0.00000988,-0.00000706,0.,-0.00000131,-0.00000005,0.,0
 .00000290,0.00000178,0.,0.00002016,0.00000200,0.,-0.00000971,-0.000003
 44,0.,-0.00000654,0.00000214,0.,0.00004598,0.00007210,0.,0.00000522,-0
 .00000201,0.,0.00005844,-0.00008221,0.,0.00000535,0.00000452,0.,-0.000
 01898,-0.00003040,0.,-0.00004340,0.00006433,0.,0.00000216,-0.00000691,
 0.,-0.00001882,-0.00005344,0.,0.00000062,0.00000815,0.,0.00030329,0.00
 038340,0.,-0.00013475,0.00010568,0.,-0.00234833,0.00093660,0.,0.001016
 27,0.00036140,0.,-0.00829333,-0.01843927,-0.00000018,-0.06114134,-0.32
 895674,-0.00000174,0.06607463,0.35012634,0.,0.,0.00000027,0.,0.,0.0000
 0057,0.,0.,-0.00000027,0.,0.,0.00000005,0.,0.,-0.00000010,0.,0.,-0.000
 00011,0.,0.,-0.00000024,0.,0.,0.00000329,0.,0.,0.00000004,0.,0.,0.0000
 0002,0.,0.,0.00000015,0.,0.,0.00000004,0.,0.,-0.00000005,0.,0.,0.00000
 004,0.,0.,-0.00000026,0.,0.,0.00000939,0.,0.,-0.00005096,0.,0.,-0.0000
 3847,0.,0.,0.00004594,0.,0.,-0.00000124,0.,0.,-0.00003891,0.,0.,0.0000
 0153,0.,0.,0.00048978,0.,0.,0.00005468,0.,0.,0.00000069,0.,0.,0.000005
 70,0.,0.,0.00000209,0.,0.,0.00016587,0.,0.,0.00003015,0.00000009,0.000
 00006,-0.00730481,0.00000001,-0.00000001,0.00023223,0.00000004,0.00000
 024,0.00346103,-0.00000075,-0.00000181,-0.03361127,0.00000082,0.000001
 91,0.02286174,-0.00003284,-0.00000864,0.,-0.00002844,0.00000079,0.,0.0
 0000732,-0.00001161,0.,0.00000758,-0.00004413,0.,-0.00001900,0.0000399
 8,0.,0.00003617,0.00000706,0.,0.00000298,0.00000338,0.,0.00003643,-0.0
 0002618,0.,-0.00000037,0.00000256,0.,-0.00000386,0.00000083,0.,-0.0000
 0023,-0.00000292,0.,0.00000326,0.00000277,0.,-0.00003691,0.00002622,0.
 ,0.00000491,0.00000008,0.,-0.00001356,-0.00000700,0.,-0.00004022,0.000
 00071,0.,-0.00001629,0.00002404,0.,-0.00003018,0.00001803,0.,-0.000151
 63,-0.00032996,0.,-0.00002309,0.00000762,0.,-0.00005790,0.00021521,0.,
 -0.00001671,-0.00001534,0.,-0.00014000,0.00031231,0.00000002,0.0000231
 9,-0.00021200,0.00000001,-0.00003098,0.00003692,0.,0.00003888,0.000213
 06,0.,-0.00000829,-0.00003222,0.,-0.00088921,-0.00071759,-0.00000001,0
 .00004104,0.00002803,0.,-0.00106943,0.00422341,-0.00000015,0.00037352,
 0.00000153,0.,-0.01782631,-0.00959910,-0.00000035,-0.32725727,-0.06930
 535,-0.00000421,-0.00199502,0.00087166,-0.00000005,0.34740265,0.000010
 18,0.00000232,0.,0.00000784,0.00000017,0.,-0.00000183,0.00000332,0.,-0
 .00000223,0.00001257,0.,0.00000550,-0.00001147,0.,-0.00001053,-0.00000
 213,0.,-0.00000192,-0.00000210,0.,-0.00000766,0.00000828,0.,0.00000013
 ,-0.00000075,0.,0.00000111,-0.00000025,0.,0.00000010,0.00000086,0.,-0.
 00000099,-0.00000081,0.,0.00001057,-0.00000749,0.,-0.00000138,-0.00000
 004,0.,0.00000443,0.00000250,0.,0.00000206,-0.00000289,0.,0.00001556,-
 0.00001875,0.,0.00000989,0.00000661,0.,0.00006367,0.00013493,0.,0.0000
 1085,-0.00000222,0.,0.00001516,-0.00010547,0.,0.00000741,0.00000531,0.
 ,0.00020201,-0.00018535,0.,-0.00003300,0.00006384,0.,0.00000492,-0.000
 00965,0.,-0.00001506,-0.00006949,0.,0.00000135,0.00000952,0.,0.0009840
 9,0.00077611,0.00000002,-0.00005407,0.00007263,0.,0.00153240,-0.002937
 70,-0.00000003,0.00034671,0.00020520,0.,0.02233340,0.00813596,0.000000
 31,-0.07517505,-0.07851533,-0.00000115,-0.02662629,-0.00285058,-0.0000
 0037,0.07483166,0.07479149,0.,0.,-0.00000128,0.,0.,-0.00000139,0.,0.,0
 .00000014,0.,0.,-0.00000006,0.,0.,0.00000011,0.,0.,0.00000032,0.,0.,0.
 00000126,0.,0.,-0.00000881,0.,0.,0.,0.,0.,0.,0.,0.,-0.00000030,0.,0.,0
 .00000098,0.,0.,0.00000002,0.,0.,0.00000005,0.,0.,0.00000153,0.,0.,-0.
 00001166,0.,0.,0.00013541,0.,0.,0.00005470,0.,0.,-0.00006326,0.,0.,0.0
 0000368,0.,0.,0.00011297,0.,0.,0.00000195,0.00000003,0.00000002,-0.001
 49650,0.,0.,-0.00006873,0.,0.,-0.00000285,0.,0.,-0.00006459,0.,0.,0.00
 000470,-0.00000002,-0.00000001,0.00010072,0.,0.,0.00047280,-0.00000015
 ,0.00000001,0.01117750,0.,0.,-0.00017718,-0.00000027,-0.00000012,0.005
 80968,-0.00000421,-0.00000108,-0.03329310,-0.00000014,0.,0.00197194,0.
 00000464,0.00000117,0.02237491,-0.00005734,-0.00001456,0.,-0.00004788,
 0.00000242,0.,0.00001149,-0.00002016,0.,0.00001361,-0.00007571,0.,-0.0
 0003291,0.00006864,0.,0.00006245,0.00001262,0.,0.00000664,0.00000767,0
 .,0.00005853,-0.00004243,-0.00000001,-0.00000072,0.00000447,0.,-0.0000
 0671,0.00000146,0.,-0.00000046,-0.00000511,0.,0.00000663,0.00000557,0.
 ,-0.00006393,0.00004529,0.,0.00000844,0.00000016,0.,-0.00002857,-0.000
 01193,0.,-0.00004645,-0.00003157,0.00000001,-0.00001769,0.00002238,0.,
 -0.00014596,0.00006293,0.,0.00001494,-0.00051567,0.00000001,-0.0000265
 2,0.00001819,0.,0.00005856,0.00003146,0.,-0.00003164,-0.00002201,0.,0.
 00017567,-0.00048574,0.,-0.00053527,-0.00050321,0.00000003,-0.00020603
 ,0.00012009,0.,0.00008979,0.00040962,-0.00000001,-0.00000965,-0.000045
 83,0.,-0.00064146,-0.00198099,0.00000001,-0.00124499,-0.00095884,-0.00
 000002,-0.00714951,-0.03193102,-0.00000027,-0.00490157,-0.00050594,-0.
 00000012,-0.09773981,-0.03403868,-0.00000038,0.00781308,0.02392612,0.0
 0000008,-0.00267247,0.00337916,-0.00000019,0.00070052,0.00172770,0.000
 00012,0.60419119,0.00002106,0.00000875,0.,0.00002646,-0.00000240,0.,-0
 .00000874,0.00000934,0.,-0.00000367,0.00003487,0.,0.00001461,-0.000031
 45,0.,-0.00002723,-0.00000485,0.,0.00000608,0.00000513,0.,-0.00005790,
 0.00001062,0.,0.00000027,-0.00000194,0.,0.00000289,-0.00000064,0.,0.00
 000010,0.00000213,0.,-0.00000166,-0.00000172,0.,0.00002762,-0.00001997
 ,0.,-0.00000366,-0.00000007,0.,0.00000626,0.00000254,0.,0.00009624,0.0
 0001715,0.,-0.00006889,-0.00001814,0.,-0.00004293,-0.00003465,0.,0.000
 26095,0.00020885,0.,0.00001030,-0.00000788,0.,0.00018920,-0.00012346,0
 .00000001,0.00000691,0.00000932,0.,-0.00010905,-0.00028669,0.,-0.00004
 423,0.00016425,-0.00000001,0.00000352,-0.00001373,0.,-0.00008696,-0.00
 014713,0.,-0.00001216,0.00001102,0.,0.00215864,-0.00059607,0.00000003,
 0.00025402,0.00049406,0.,-0.00853634,-0.00854240,-0.00000015,0.0005760
 9,0.00132594,0.00000001,-0.02630216,-0.21409806,-0.00000078,-0.0031090
 3,-0.02904106,-0.00000017,0.00127323,-0.00035990,-0.00000002,-0.001582
 79,0.00119713,0.,-0.01383110,0.50344171,0.,0.,0.00000068,0.,0.,-0.0000
 0040,0.,0.,0.00000007,0.,0.,-0.00000001,0.,0.,-0.00000003,0.,0.,0.0000
 0002,0.,0.,-0.00000216,0.,0.,0.00000264,0.,0.,0.00000007,0.,0.,0.,0.,0
 .,0.,0.,0.,-0.00000002,0.,0.,-0.00000006,0.,0.,0.00000004,0.,0.,-0.000
 00089,0.,0.,-0.00001166,0.,0.,0.00003608,0.,0.,0.00003395,0.,-0.000000
 01,-0.00000987,0.,0.,0.00000005,0.,0.,-0.00002036,0.,0.,-0.00000492,0.
 ,0.,-0.00035331,-0.00000001,-0.00000001,-0.00004497,0.,0.,0.00000256,0
 .,0.,-0.00003171,0.,0.,0.00000500,0.00000003,-0.00000003,-0.00109790,-
 0.00000003,0.,0.00095137,-0.00000019,-0.00000048,0.00346285,-0.0000001
 0,0.,0.00263976,-0.00000031,-0.00000088,-0.07855668,-0.00000002,0.0000
 0022,0.00788641,-0.00000020,0.,0.01254323,0.00000011,0.00000005,-0.007
 64781,0.00000066,-0.00000043,0.55355870,0.00000886,0.00000407,-0.00000
 019,0.00000890,-0.00000148,0.00000010,-0.00000287,0.00000389,-0.000000
 04,-0.00000214,0.00001423,0.,0.00000612,-0.00001272,0.,-0.00001111,-0.
 00000213,0.00000005,0.00000327,0.00000178,0.00000010,-0.00002327,0.000
 00465,0.00000025,0.00000009,-0.00000081,-0.00000001,0.00000125,-0.0000
 0027,0.,0.00000007,0.00000093,-0.00000002,-0.00000107,-0.00000098,0.00
 000001,0.00001181,-0.00000840,0.00000002,-0.00000157,0.,0.,0.00000591,
 0.00000155,0.00000013,0.00002919,0.00000745,-0.00000280,-0.00001350,-0
 .00000786,0.00000849,-0.00000142,0.00000750,0.00000208,0.00004985,0.00
 003662,-0.00001937,0.00000549,-0.00000292,-0.00000062,0.00007826,-0.00
 002396,0.00001407,0.00000789,0.00000547,-0.00000187,-0.00013386,0.0000
 5733,-0.00002370,-0.00000112,0.00006359,0.00000396,0.00001045,-0.00001
 073,-0.00000087,0.00002168,-0.00007151,-0.00000869,0.00000907,0.000015
 45,-0.00000271,-0.00022221,-0.00039117,0.00029878,-0.00143053,-0.00044
 896,0.00074068,-0.00036717,-0.00027353,-0.00015888,0.00013195,0.000056
 38,-0.00022412,0.00305681,-0.00092956,0.00754144,0.00000554,-0.0002373
 5,-0.00024623,0.00017367,0.00009389,0.00003520,0.00025084,-0.00004173,
 -0.00029884,-0.08865690,0.04318758,-0.08332350,0.09222959,-0.00000618,
 -0.00000107,-0.00000007,-0.00000673,-0.00000038,-0.00000002,0.00000178
 ,-0.00000209,-0.00000004,0.00000102,-0.00000835,0.,-0.00000346,0.00000
 767,0.,0.00000688,0.00000120,-0.00000002,0.00000173,0.00000071,-0.0000
 0015,0.00000539,-0.00000544,0.00000083,-0.00000009,0.00000047,0.000000
 02,-0.00000067,0.00000015,0.,-0.00000002,-0.00000050,0.,0.00000031,0.0
 0000026,0.00000018,-0.00000660,0.00000479,-0.00000002,0.00000087,0.000
 00003,0.00000002,0.00000015,-0.00000084,0.00000005,-0.00001417,-0.0000
 0012,-0.00000336,0.00000538,-0.00000769,0.00000247,0.00000037,0.000025
 27,0.00000215,-0.00004351,-0.00007318,-0.00000061,-0.00000170,0.000001
 68,0.00000010,0.00000651,0.00005798,-0.00000697,0.00000252,-0.00000238
 ,-0.00000020,-0.00007471,0.00013893,-0.00000477,0.00002330,-0.00004566
 ,0.00001090,-0.00000018,0.00000449,-0.00000071,0.00003351,0.00002256,-
 0.00000372,0.00000507,-0.00000056,-0.00000008,-0.00046082,0.00041389,-
 0.00007353,-0.00058103,0.00005388,0.00030672,0.00130964,0.00053470,-0.
 00050885,0.00011047,-0.00004781,-0.00049051,0.01475733,-0.01624154,0.0
 2718865,-0.00287102,-0.00341397,-0.00012135,0.00052747,-0.00089787,-0.
 00244789,0.00002431,0.00003753,0.00113253,0.04464532,-0.10005765,0.098
 09016,-0.04923772,0.11057746,-0.00000475,-0.00000157,0.00000018,-0.000
 00166,0.00000049,-0.00000011,0.00000016,-0.00000155,0.00000003,0.00000
 161,-0.00000555,-0.00000002,-0.00000262,0.00000498,0.00000002,0.000004
 70,0.00000113,-0.00000002,0.,0.00000126,-0.00000016,0.00000349,-0.0000
 0400,0.00000060,-0.00000002,0.00000035,-0.00000002,-0.00000057,0.00000
 012,0.,-0.00000008,-0.00000046,0.,0.00000089,0.00000071,-0.00000015,-0
 .00000521,0.00000353,0.00000002,0.00000070,0.00000002,-0.00000001,-0.0
 0000511,-0.00000165,0.00000004,0.00001116,0.00000446,0.00000062,-0.000
 02257,0.00000820,-0.00000314,-0.00001514,-0.00004428,-0.00000498,0.000
 06425,-0.00000433,-0.00000115,-0.00000498,0.00000083,-0.00000003,-0.00
 008669,0.00005589,0.00001351,-0.00001277,-0.00000468,-0.00000069,0.000
 03456,-0.00032988,0.00002900,0.00001112,-0.00001442,0.00000026,-0.0000
 0125,0.00000464,0.00000012,-0.00003962,0.00003692,0.00000388,-0.000013
 09,-0.00001303,-0.00000041,-0.00026708,0.00034673,0.00016238,0.0005720
 5,-0.00023465,-0.00033481,-0.00050928,0.00033494,0.00020822,0.00015936
 ,0.00000028,-0.00004640,0.00128397,-0.00095019,0.00330268,0.00058625,-
 0.00009840,-0.00002237,-0.00004304,-0.00006117,-0.00032354,0.00001981,
 -0.00005526,0.00016105,-0.08289143,0.09673220,-0.22199088,0.09123460,-
 0.10617995,0.23872408,0.00000886,0.00000407,0.00000019,0.00000890,-0.0
 0000148,-0.00000010,-0.00000287,0.00000389,0.00000004,-0.00000214,0.00
 001423,0.,0.00000612,-0.00001272,0.,-0.00001111,-0.00000213,-0.0000000
 5,0.00000327,0.00000178,-0.00000010,-0.00002327,0.00000465,-0.00000024
 ,0.00000009,-0.00000081,0.00000001,0.00000125,-0.00000027,0.,0.0000000
 7,0.00000093,0.00000002,-0.00000107,-0.00000098,-0.00000001,0.00001181
 ,-0.00000840,-0.00000002,-0.00000157,0.,0.,0.00000591,0.00000155,-0.00
 000013,0.00002919,0.00000745,0.00000280,-0.00001350,-0.00000786,-0.000
 00849,-0.00000142,0.00000750,-0.00000208,0.00004986,0.00003662,0.00001
 936,0.00000549,-0.00000292,0.00000062,0.00007825,-0.00002395,-0.000014
 06,0.00000789,0.00000547,0.00000187,-0.00013386,0.00005729,0.00002370,
 -0.00000112,0.00006359,-0.00000397,0.00001045,-0.00001073,0.00000087,0
 .00002167,-0.00007150,0.00000870,0.00000907,0.00001544,0.00000271,-0.0
 0022228,-0.00039112,-0.00029882,-0.00143071,-0.00044907,-0.00074075,-0
 .00036719,-0.00027353,0.00015887,0.00013195,0.00005638,0.00022413,0.00
 305700,-0.00092953,-0.00754145,0.00000555,-0.00023735,0.00024622,0.000
 17367,0.00009389,-0.00003518,0.00025083,-0.00004173,0.00029885,-0.0886
 6130,0.04318938,0.08332711,0.00491166,-0.00657567,-0.01113258,0.092234
 75,-0.00000618,-0.00000107,0.00000007,-0.00000673,-0.00000038,0.000000
 02,0.00000178,-0.00000209,0.00000004,0.00000102,-0.00000835,0.,-0.0000
 0346,0.00000767,0.,0.00000688,0.00000120,0.00000002,0.00000173,0.00000
 071,0.00000015,0.00000539,-0.00000544,-0.00000083,-0.00000009,0.000000
 47,-0.00000002,-0.00000067,0.00000015,0.,-0.00000002,-0.00000050,0.,0.
 00000031,0.00000026,-0.00000018,-0.00000660,0.00000479,0.00000002,0.00
 000087,0.00000003,-0.00000002,0.00000015,-0.00000084,-0.00000005,-0.00
 001417,-0.00000011,0.00000336,0.00000537,-0.00000769,-0.00000247,0.000
 00037,0.00002527,-0.00000215,-0.00004351,-0.00007318,0.00000061,-0.000
 00170,0.00000168,-0.00000010,0.00000651,0.00005798,0.00000697,0.000002
 52,-0.00000238,0.00000020,-0.00007471,0.00013892,0.00000477,0.00002330
 ,-0.00004566,-0.00001089,-0.00000018,0.00000450,0.00000071,0.00003351,
 0.00002256,0.00000372,0.00000507,-0.00000056,0.00000008,-0.00046084,0.
 00041389,0.00007352,-0.00058107,0.00005387,-0.00030673,0.00130961,0.00
 053470,0.00050889,0.00011046,-0.00004781,0.00049052,0.01475804,-0.0162
 4136,-0.02718840,-0.00287102,-0.00341396,0.00012126,0.00052740,-0.0008
 9788,0.00244790,0.00002434,0.00003754,-0.00113254,0.04464715,-0.100056
 29,-0.09808813,-0.00657606,0.00721293,0.01224296,-0.04923962,0.1105759
 8,0.00000475,0.00000157,0.00000018,0.00000166,-0.00000049,-0.00000011,
 -0.00000016,0.00000155,0.00000004,-0.00000161,0.00000555,-0.00000002,0
 .00000262,-0.00000498,0.00000002,-0.00000470,-0.00000113,-0.00000002,0
 .,-0.00000126,-0.00000016,-0.00000349,0.00000400,0.00000060,0.00000002
 ,-0.00000035,-0.00000002,0.00000057,-0.00000012,0.,0.00000008,0.000000
 46,0.,-0.00000089,-0.00000071,-0.00000015,0.00000521,-0.00000353,0.000
 00002,-0.00000070,-0.00000002,-0.00000001,0.00000511,0.00000165,0.0000
 0004,-0.00001116,-0.00000446,0.00000062,0.00002257,-0.00000820,-0.0000
 0314,0.00001514,0.00004428,-0.00000499,-0.00006425,0.00000434,-0.00000
 115,0.00000498,-0.00000083,-0.00000003,0.00008669,-0.00005589,0.000013
 52,0.00001277,0.00000468,-0.00000069,-0.00003456,0.00032988,0.00002900
 ,-0.00001113,0.00001442,0.00000026,0.00000125,-0.00000464,0.00000012,0
 .00003962,-0.00003692,0.00000389,0.00001309,0.00001303,-0.00000041,0.0
 0026706,-0.00034674,0.00016238,-0.00057210,0.00023464,-0.00033487,0.00
 050928,-0.00033493,0.00020823,-0.00015935,-0.00000028,-0.00004640,-0.0
 0128389,0.00095003,0.00330228,-0.00058627,0.00009837,-0.00002237,0.000
 04306,0.00006117,-0.00032352,-0.00001980,0.00005526,0.00016105,0.08289
 503,-0.09673020,-0.22198783,0.01113320,-0.01224294,-0.02144613,-0.0912
 3852,0.10617775,0.23872074,-0.00002347,-0.00000625,0.,-0.00001932,0.00
 000086,0.,0.00000478,-0.00000828,0.,0.00000581,-0.00003145,0.,-0.00001
 360,0.00002843,0.,0.00002578,0.00000512,0.,0.00000216,0.00000269,0.,0.
 00002535,-0.00001857,0.,-0.00000025,0.00000183,0.,-0.00000279,0.000000
 59,0.,-0.00000017,-0.00000211,0.,0.00000256,0.00000218,0.,-0.00002661,
 0.00001883,0.,0.00000355,0.00000004,0.,-0.00001125,-0.00000501,0.,-0.0
 0002201,-0.00000113,0.,-0.00001386,0.00000850,0.,-0.00003205,-0.000005
 24,0.,-0.00001700,-0.00018016,0.,-0.00001364,0.00000598,0.,-0.00007051
 ,0.00012621,0.,-0.00001643,-0.00001102,0.,-0.00001070,-0.00012592,0.,-
 0.00002780,-0.00015124,0.,-0.00003115,0.00003130,0.,-0.00000145,0.0001
 5904,0.,-0.00001279,-0.00002684,0.,0.00016357,0.00005765,0.,0.00027127
 ,-0.00032125,0.00000001,0.00084702,-0.00086001,-0.00000001,-0.00028741
 ,-0.00014071,-0.00000001,-0.00632642,0.00046965,-0.00000006,0.00115976
 ,0.00187560,0.00000003,0.00025374,0.00003829,0.,0.00050764,-0.00011521
 ,0.,-0.32028579,-0.03748293,-0.00000354,-0.01014948,-0.00158505,0.0010
 7087,-0.01015014,-0.00158516,-0.00107119,0.34429309,-0.00001592,-0.000
 00331,0.,-0.00001392,-0.00000013,0.,0.00000330,-0.00000534,0.,0.000003
 46,-0.00002042,0.,-0.00000877,0.00001862,0.,0.00001700,0.00000333,0.,0
 .00000375,0.00000291,0.,0.00001233,-0.00001208,0.,-0.00000019,0.000001
 19,0.,-0.00000176,0.00000038,0.,-0.00000010,-0.00000134,0.,0.00000138,
 0.00000117,0.,-0.00001698,0.00001210,0.,0.00000225,0.00000005,0.,-0.00
 000525,-0.00000320,0.,-0.00001738,-0.00000708,0.,-0.00000538,0.0000013
 1,0.,-0.00003860,0.00006072,0.,-0.00008744,-0.00018289,0.,-0.00000709,
 0.00000481,0.,0.00012990,-0.00001888,0.,0.00000147,-0.00000358,0.,-0.0
 0012863,0.00033597,0.,-0.00018316,-0.00015817,0.,-0.00006427,0.0000334
 3,0.,0.00003411,0.00009887,0.,0.00000397,-0.00000837,0.,0.00103615,-0.
 00062876,0.00000001,0.00006076,0.00048663,0.,0.00037159,-0.00634492,-0
 .00000002,-0.00155531,-0.00018164,-0.00000003,-0.03443244,-0.00451450,
 -0.00000045,-0.00139464,0.00104168,-0.00000002,0.00016993,0.00050972,0
 .,0.00097828,-0.00078134,0.00000001,-0.03411794,-0.05349668,-0.0000004
 5,0.01471751,0.00171054,-0.00177562,0.01471728,0.00171049,0.00177600,0
 .03983075,0.06033870,0.,0.,0.00000038,0.,0.,0.00000010,0.,0.,-0.000000
 01,0.,0.,0.00000003,0.,0.,-0.00000004,0.,0.,0.00000003,0.,0.,0.0000005
 0,0.,0.,-0.00000266,0.,0.,0.,0.,0.,0.,0.,0.,0.00000002,0.,0.,-0.000000
 57,0.,0.,-0.00000002,0.,0.,0.,0.,0.,0.00000006,0.,0.,0.00000602,0.,0.,
 0.00000062,0.,0.,-0.00001539,0.,0.,-0.00002317,0.,0.,-0.00000004,0.,0.
 ,0.00003431,0.,0.,0.00000039,0.,0.,0.00012259,0.,0.,-0.00002254,0.,0.,
 0.00000336,0.,0.,0.00000814,0.,0.,0.00000164,0.,0.,0.00011083,0.000000
 01,0.,-0.00046327,0.,-0.00000003,0.00125900,-0.00000001,0.,0.00034537,
 -0.00000018,-0.00000001,-0.00137157,0.00000002,0.00000003,-0.00037847,
 0.,0.,-0.00018674,0.,0.,0.00029005,-0.00000352,-0.00000049,-0.04936202
 ,-0.02670065,-0.00464904,0.00156834,0.02670045,0.00464899,0.00156904,0
 .00000389,0.00000056,0.04650571\\-0.00000369,0.00000296,-0.00000003,-0
 .00002042,-0.00001246,-0.00000003,0.00001017,0.00001027,0.00000001,-0.
 00002390,-0.00001613,-0.00000002,-0.00000506,0.00000819,0.00000002,0.0
 0002177,0.00000819,0.,-0.00000969,-0.00000669,-0.00000012,0.00000046,0
 .00001022,0.00000010,-0.00000025,-0.00000717,0.,0.00000316,0.00000270,
 0.,0.00000069,-0.00000175,0.,-0.00000194,0.00000388,-0.00000004,0.0000
 2212,-0.00000254,0.,-0.00000713,-0.00000235,0.,0.00001527,0.00000276,0
 .00000016,0.00004447,-0.00000985,-0.00000007,-0.00002615,-0.00001014,-
 0.00000014,-0.00004577,0.00001275,0.00000011,-0.00001422,0.00003307,0.
 ,0.00000557,-0.00000233,0.,0.00003132,-0.00000977,-0.00000003,0.000007
 04,0.00000471,0.00000007,0.00002825,-0.00003245,0.,-0.00001213,0.00003
 397,-0.00000002,0.00000008,-0.00001229,0.00000001,-0.00000808,-0.00001
 426,0.,-0.00000498,0.00001147,0.,-0.00000401,0.,0.,-0.00000355,-0.0000
 0930,0.,0.00000483,-0.00000456,0.,-0.00000379,0.00000147,0.,0.00001173
 ,0.00000426,0.,-0.00000987,0.00000051,0.,-0.00000215,0.00000611,0.,0.0
 0000005,0.00000469,0.,0.00000263,-0.00000476,0.,-0.00000151,-0.0000010
 8,0.00000026,-0.00000151,-0.00000108,-0.00000026,0.00000017,-0.0000012
 0,0.\\\@


 TOWERING GENIUS DISDAINS A BEATEN PATH.  IT SEEKS 
 REGIONS HITHERTO UNEXPLORED.

                                -- ABRAHAM LINCOLN
 Job cpu time:       0 days  2 hours 40 minutes 21.9 seconds.
 Elapsed time:       0 days  0 hours 11 minutes 28.6 seconds.
 File lengths (MBytes):  RWF=    759 Int=      0 D2E=      0 Chk=     24 Scr=      2
 Normal termination of Gaussian 16 at Tue Jul 11 12:26:17 2023.
