 Entering Gaussian System, Link 0=g16
 Input=MaDA-TS-2-energy-conf-1.com
 Output=MaDA-TS-2-energy-conf-1.log
 Initial command:
 /public/home/zhoujunsu/g16/l1.exe "/public/home/zhoujunsu/g16/scratch/Gau-373823.inp" -scrdir="/public/home/zhoujunsu/g16/scratch/"
 Entering Link 1 = /public/home/zhoujunsu/g16/l1.exe PID=    373824.
  
 Copyright (c) 1988,1990,1992,1993,1995,1998,2003,2009,2016,
            Gaussian, Inc.  All Rights Reserved.
  
 This is part of the Gaussian(R) 16 program.  It is based on
 the Gaussian(R) 09 system (copyright 2009, Gaussian, Inc.),
 the Gaussian(R) 03 system (copyright 2003, Gaussian, Inc.),
 the Gaussian(R) 98 system (copyright 1998, Gaussian, Inc.),
 the Gaussian(R) 94 system (copyright 1995, Gaussian, Inc.),
 the Gaussian 92(TM) system (copyright 1992, Gaussian, Inc.),
 the Gaussian 90(TM) system (copyright 1990, Gaussian, Inc.),
 the Gaussian 88(TM) system (copyright 1988, Gaussian, Inc.),
 the Gaussian 86(TM) system (copyright 1986, Carnegie Mellon
 University), and the Gaussian 82(TM) system (copyright 1983,
 Carnegie Mellon University). Gaussian is a federally registered
 trademark of Gaussian, Inc.
  
 This software contains proprietary and confidential information,
 including trade secrets, belonging to Gaussian, Inc.
  
 This software is provided under written license and may be
 used, copied, transmitted, or stored only in accord with that
 written license.
  
 The following legend is applicable only to US Government
 contracts under FAR:
  
                    RESTRICTED RIGHTS LEGEND
  
 Use, reproduction and disclosure by the US Government is
 subject to restrictions as set forth in subparagraphs (a)
 and (c) of the Commercial Computer Software - Restricted
 Rights clause in FAR 52.227-19.
  
 Gaussian, Inc.
 340 Quinnipiac St., Bldg. 40, Wallingford CT 06492
  
  
 ---------------------------------------------------------------
 Warning -- This program may not be used in any manner that
 competes with the business of Gaussian, Inc. or will provide
 assistance to any competitor of Gaussian, Inc.  The licensee
 of this program is prohibited from giving any competitor of
 Gaussian, Inc. access to this program.  By using this program,
 the user acknowledges that Gaussian, Inc. is engaged in the
 business of creating and licensing software in the field of
 computational chemistry and represents and warrants to the
 licensee that it is not a competitor of Gaussian, Inc. and that
 it will not use this program in any manner prohibited above.
 ---------------------------------------------------------------
  

 Cite this work as:
 Gaussian 16, Revision A.03,
 M. J. Frisch, G. W. Trucks, H. B. Schlegel, G. E. Scuseria, 
 M. A. Robb, J. R. Cheeseman, G. Scalmani, V. Barone, 
 G. A. Petersson, H. Nakatsuji, X. Li, M. Caricato, A. V. Marenich, 
 J. Bloino, B. G. Janesko, R. Gomperts, B. Mennucci, H. P. Hratchian, 
 J. V. Ortiz, A. F. Izmaylov, J. L. Sonnenberg, D. Williams-Young, 
 F. Ding, F. Lipparini, F. Egidi, J. Goings, B. Peng, A. Petrone, 
 T. Henderson, D. Ranasinghe, V. G. Zakrzewski, J. Gao, N. Rega, 
 G. Zheng, W. Liang, M. Hada, M. Ehara, K. Toyota, R. Fukuda, 
 J. Hasegawa, M. Ishida, T. Nakajima, Y. Honda, O. Kitao, H. Nakai, 
 T. Vreven, K. Throssell, J. A. Montgomery, Jr., J. E. Peralta, 
 F. Ogliaro, M. J. Bearpark, J. J. Heyd, E. N. Brothers, K. N. Kudin, 
 V. N. Staroverov, T. A. Keith, R. Kobayashi, J. Normand, 
 K. Raghavachari, A. P. Rendell, J. C. Burant, S. S. Iyengar, 
 J. Tomasi, M. Cossi, J. M. Millam, M. Klene, C. Adamo, R. Cammi, 
 J. W. Ochterski, R. L. Martin, K. Morokuma, O. Farkas, 
 J. B. Foresman, and D. J. Fox, Gaussian, Inc., Wallingford CT, 2016.
 
 ******************************************
 Gaussian 16:  ES64L-G16RevA.03 25-Dec-2016
                12-Jul-2023 
 ******************************************
 %mem=50gb
 %nproc=50
 Will use up to   50 processors via shared memory.
 %chk=MaDA-TS-2-conf-1.chk
 ----------------------------------------------------------------------
 # wb97xd/6-311++G(d,p) integral(ultrafinegrid) guess=read geom=check s
 crf=(cpcm,read,solvent=water)
 ----------------------------------------------------------------------
 1/29=2,38=1,40=2,172=1/1;
 2/12=2,40=1/2;
 3/5=4,6=6,7=1111,11=2,14=-4,25=1,30=1,70=2103,72=1,74=-58,75=-5,116=-2/1,2,3;
 4/5=1/1;
 5/5=2,38=6,53=1/2;
 6/7=2,8=2,9=2,10=2,28=1/1;
 99/5=1,9=1/99;
 ----------------------------------------------------------------------
 Candidate Structure: MaDA-TS-2, Conformer: 1, Single-point energies ca
 lculated with wB97X-D/6-311++G(d,p)
 ----------------------------------------------------------------------
 Structure from the checkpoint file:  "MaDA-TS-2-conf-1.chk"
 Charge =  0 Multiplicity = 1
 Redundant internal coordinates found in file.  (old form).
 C,0,-7.9753028493,0.7338448613,1.0172817621
 C,0,-7.7754160646,-0.1616881213,2.066927177
 C,0,-6.5189224914,-0.7326926828,2.2707139312
 C,0,-5.4740839325,-0.3878581505,1.421678206
 C,0,-5.6329286854,0.5160448935,0.369969785
 C,0,-6.9144915808,1.0617539884,0.1776033909
 H,0,-8.9603018127,1.1663906503,0.8668382541
 H,0,-6.3597115413,-1.4421050865,3.0776383947
 H,0,-4.5078649644,-0.8600424552,1.5741083669
 O,0,-8.8479763851,-0.4394624552,2.8526558817
 H,0,-8.5880654728,-1.0638388162,3.5429148302
 O,0,-7.0756878155,1.915073676,-0.8689951923
 H,0,-7.9932425683,2.2152060434,-0.9054280844
 C,0,-4.5320835157,0.8575058718,-0.5690054581
 H,0,-4.7474568116,1.6940708304,-1.2285279455
 C,0,-3.1972156325,0.7764229483,-0.1353079109
 H,0,-2.9624912886,0.2624882523,0.7856483901
 C,0,-2.1295684486,1.4809319968,-0.785219641
 O,0,-2.246273771,1.9119412187,-1.9647630325
 C,0,-0.8458645982,1.6303801342,-0.0624719457
 C,0,-0.7584578226,1.5369141299,1.3349251034
 C,0,0.3505899147,1.8280852137,-0.7888262876
 C,0,0.4518760097,1.612266421,1.9889812437
 H,0,-1.6642761428,1.4257504614,1.9212835308
 C,0,1.6022063515,1.8568556166,-0.1526077186
 C,0,1.6298906121,1.7503752211,1.242316496
 H,0,0.517910154,1.5557535403,3.0700429544
 O,0,0.3236436445,1.9701230615,-2.1268724482
 H,0,-0.6375060556,2.0164864614,-2.370973036
 O,0,2.7832661251,1.7810487456,1.9510913383
 H,0,3.527169276,1.9879211222,1.3580204654
 C,0,1.8178892838,-1.6207210201,-0.1059495449
 C,0,1.5196840466,-1.5246368187,-1.4637288773
 C,0,0.7885143606,-1.741158406,0.8315869598
 C,0,0.1907431902,-1.4879522882,-1.8675918135
 H,0,2.3032452344,-1.4477606781,-2.2079634006
 C,0,-0.5359750133,-1.7137771053,0.4131530576
 H,0,1.017198178,-1.8385065499,1.8884113883
 C,0,-0.8693698734,-1.5664550503,-0.9457017896
 O,0,-1.5605518579,-1.7884195009,1.2992199804
 H,0,-1.2075793903,-1.7483477857,2.1980921023
 O,0,-0.0335581849,-1.3658929334,-3.201622862
 H,0,-0.9586402538,-1.560144413,-3.4022713902
 C,0,-2.2374487423,-1.3234607669,-1.4066312525
 H,0,-2.3094006738,-0.5732138859,-2.1902299331
 C,0,-3.3531729136,-2.076471874,-1.1366746107
 H,0,-3.2589725819,-2.9543694523,-0.5024206011
 C,0,-4.6457343749,-1.6683871705,-1.5331811598
 C,0,-4.8398964106,-0.4017026239,-2.0883467276
 H,0,-4.0636968118,0.0599077802,-2.6926972398
 H,0,-5.8498774642,-0.127020334,-2.3852095356
 C,0,-5.8362139837,-2.5081207368,-1.1546745934
 H,0,-6.7072505522,-1.8802619981,-0.9432921756
 H,0,-6.1057637054,-3.1809587104,-1.978666119
 H,0,-5.6335147098,-3.1251910812,-0.2740828165
 C,0,2.8703696901,1.948398728,-0.9757756765
 H,0,2.5861042402,2.1976624902,-2.0027756041
 H,0,3.3352334635,0.9558984154,-1.0200065003
 C,0,3.8466571232,2.9813708722,-0.4644409623
 H,0,3.3947345386,3.9406647979,-0.2077609669
 C,0,5.1725539566,2.8539589987,-0.3022060823
 C,0,5.996076984,3.998644634,0.230383923
 H,0,6.7516090903,4.3045582585,-0.5041171428
 H,0,5.3806064815,4.8690915368,0.4749119085
 H,0,6.5399013121,3.6944585772,1.1334703163
 C,0,5.963673847,1.6166524518,-0.6315022052
 H,0,6.4558478914,1.2189072774,0.2648656072
 H,0,5.3607897077,0.8180059372,-1.0653759614
 H,0,6.7588364657,1.8625726958,-1.3461630552
 C,0,5.1854408592,-1.3199593012,1.3597093657
 C,0,5.3716316477,-1.7115138452,0.0280181822
 C,0,6.6104601854,-1.8966533613,-0.5658652835
 C,0,7.7184570709,-1.6572250822,0.2422184121
 C,0,7.5721253149,-1.2561622884,1.5861130135
 C,0,6.3165021742,-1.0874000875,2.1493356529
 C,0,3.7601806074,-1.2390087131,1.5390980646
 C,0,3.2042412228,-1.5690728044,0.3466549671
 H,0,6.7232652767,-2.1966094936,-1.6010413277
 H,0,8.4607023577,-1.0792258004,2.1860751148
 H,0,6.2204120573,-0.7775244552,3.1849441551
 H,0,3.2277827029,-0.9231813106,2.423683588
 O,0,8.9431457289,-1.8281396069,-0.3236862583
 H,0,9.6310848303,-1.6246133039,0.3234461394
 O,0,4.1725555397,-1.8578234064,-0.5925222305
 Recover connectivity data from disk.
                           ----------------------------
                           !    Current Parameters    !
                           ! (Angstroms and Degrees)  !
 --------------------------                            --------------------------
 ! Name  Definition              Value                                          !
 --------------------------------------------------------------------------------
 ! R1    R(1,2)                  1.3942                                         !
 ! R2    R(1,6)                  1.3921                                         !
 ! R3    R(1,7)                  1.0863                                         !
 ! R4    R(2,3)                  1.3951                                         !
 ! R5    R(2,10)                 1.3583                                         !
 ! R6    R(3,4)                  1.3898                                         !
 ! R7    R(3,8)                  1.0862                                         !
 ! R8    R(4,5)                  1.3958                                         !
 ! R9    R(4,9)                  1.0862                                         !
 ! R10   R(5,6)                  1.4061                                         !
 ! R11   R(5,14)                 1.4867                                         !
 ! R12   R(6,12)                 1.36                                           !
 ! R13   R(10,11)                0.9664                                         !
 ! R14   R(12,13)                0.9661                                         !
 ! R15   R(14,15)                1.0868                                         !
 ! R16   R(14,16)                1.4059                                         !
 ! R17   R(14,49)                1.9972                                         !
 ! R18   R(16,17)                1.0805                                         !
 ! R19   R(16,18)                1.4348                                         !
 ! R20   R(18,19)                1.2612                                         !
 ! R21   R(18,20)                1.4807                                         !
 ! R22   R(20,21)                1.4032                                         !
 ! R23   R(20,22)                1.4136                                         !
 ! R24   R(21,23)                1.3778                                         !
 ! R25   R(21,24)                1.0847                                         !
 ! R26   R(22,25)                1.4043                                         !
 ! R27   R(22,28)                1.3458                                         !
 ! R28   R(23,26)                1.4015                                         !
 ! R29   R(23,27)                1.0845                                         !
 ! R30   R(25,26)                1.3993                                         !
 ! R31   R(25,56)                1.5147                                         !
 ! R32   R(26,30)                1.3541                                         !
 ! R33   R(28,29)                0.9927                                         !
 ! R34   R(30,31)                0.9736                                         !
 ! R35   R(32,33)                1.3935                                         !
 ! R36   R(32,34)                1.3975                                         !
 ! R37   R(32,77)                1.4593                                         !
 ! R38   R(33,35)                1.3894                                         !
 ! R39   R(33,36)                1.0834                                         !
 ! R40   R(34,37)                1.3893                                         !
 ! R41   R(34,38)                1.0857                                         !
 ! R42   R(35,39)                1.4071                                         !
 ! R43   R(35,42)                1.3583                                         !
 ! R44   R(37,39)                1.4069                                         !
 ! R45   R(37,40)                1.3566                                         !
 ! R46   R(39,44)                1.4639                                         !
 ! R47   R(40,41)                0.9665                                         !
 ! R48   R(42,43)                0.9663                                         !
 ! R49   R(44,45)                1.0872                                         !
 ! R50   R(44,46)                1.3729                                         !
 ! R51   R(46,47)                1.0871                                         !
 ! R52   R(46,48)                1.4123                                         !
 ! R53   R(48,49)                1.3966                                         !
 ! R54   R(48,52)                1.5052                                         !
 ! R55   R(49,50)                1.0867                                         !
 ! R56   R(49,51)                1.088                                          !
 ! R57   R(52,53)                1.0943                                         !
 ! R58   R(52,54)                1.0974                                         !
 ! R59   R(52,55)                1.0942                                         !
 ! R60   R(56,57)                1.0944                                         !
 ! R61   R(56,58)                1.0969                                         !
 ! R62   R(56,59)                1.5105                                         !
 ! R63   R(59,60)                1.091                                          !
 ! R64   R(59,61)                1.3418                                         !
 ! R65   R(61,62)                1.5074                                         !
 ! R66   R(61,66)                1.5051                                         !
 ! R67   R(62,63)                1.0972                                         !
 ! R68   R(62,64)                1.0937                                         !
 ! R69   R(62,65)                1.0972                                         !
 ! R70   R(66,67)                1.0972                                         !
 ! R71   R(66,68)                1.0907                                         !
 ! R72   R(66,69)                1.097                                          !
 ! R73   R(70,71)                1.4005                                         !
 ! R74   R(70,75)                1.3989                                         !
 ! R75   R(70,76)                1.4388                                         !
 ! R76   R(71,72)                1.3862                                         !
 ! R77   R(71,84)                1.358                                          !
 ! R78   R(72,73)                1.3921                                         !
 ! R79   R(72,78)                1.0836                                         !
 ! R80   R(73,74)                1.4101                                         !
 ! R81   R(73,82)                1.3599                                         !
 ! R82   R(74,75)                1.3865                                         !
 ! R83   R(74,79)                1.0867                                         !
 ! R84   R(75,80)                1.0852                                         !
 ! R85   R(76,77)                1.3564                                         !
 ! R86   R(76,81)                1.0797                                         !
 ! R87   R(77,84)                1.3795                                         !
 ! R88   R(82,83)                0.9662                                         !
 ! A1    A(2,1,6)              119.7473                                         !
 ! A2    A(2,1,7)              119.3447                                         !
 ! A3    A(6,1,7)              120.908                                          !
 ! A4    A(1,2,3)              120.1329                                         !
 ! A5    A(1,2,10)             116.9796                                         !
 ! A6    A(3,2,10)             122.8871                                         !
 ! A7    A(2,3,4)              119.0985                                         !
 ! A8    A(2,3,8)              120.5212                                         !
 ! A9    A(4,3,8)              120.3791                                         !
 ! A10   A(3,4,5)              122.3728                                         !
 ! A11   A(3,4,9)              118.3711                                         !
 ! A12   A(5,4,9)              119.2409                                         !
 ! A13   A(4,5,6)              117.2653                                         !
 ! A14   A(4,5,14)             122.7081                                         !
 ! A15   A(6,5,14)             119.9564                                         !
 ! A16   A(1,6,5)              121.3717                                         !
 ! A17   A(1,6,12)             121.4443                                         !
 ! A18   A(5,6,12)             117.1823                                         !
 ! A19   A(2,10,11)            109.4477                                         !
 ! A20   A(6,12,13)            109.6656                                         !
 ! A21   A(5,14,15)            114.4144                                         !
 ! A22   A(5,14,16)            119.6691                                         !
 ! A23   A(5,14,49)            102.7999                                         !
 ! A24   A(15,14,16)           114.8186                                         !
 ! A25   A(15,14,49)            89.606                                          !
 ! A26   A(16,14,49)           110.1605                                         !
 ! A27   A(14,16,17)           119.7786                                         !
 ! A28   A(14,16,18)           122.5797                                         !
 ! A29   A(17,16,18)           117.2586                                         !
 ! A30   A(16,18,19)           121.5052                                         !
 ! A31   A(16,18,20)           118.266                                          !
 ! A32   A(19,18,20)           120.1465                                         !
 ! A33   A(18,20,21)           122.2316                                         !
 ! A34   A(18,20,22)           119.8075                                         !
 ! A35   A(21,20,22)           117.9238                                         !
 ! A36   A(20,21,23)           121.5876                                         !
 ! A37   A(20,21,24)           119.545                                          !
 ! A38   A(23,21,24)           118.8519                                         !
 ! A39   A(20,22,25)           121.6303                                         !
 ! A40   A(20,22,28)           120.5763                                         !
 ! A41   A(25,22,28)           117.7815                                         !
 ! A42   A(21,23,26)           119.3957                                         !
 ! A43   A(21,23,27)           121.5884                                         !
 ! A44   A(26,23,27)           119.012                                          !
 ! A45   A(22,25,26)           117.8859                                         !
 ! A46   A(22,25,56)           120.0817                                         !
 ! A47   A(26,25,56)           121.993                                          !
 ! A48   A(23,26,25)           121.4643                                         !
 ! A49   A(23,26,30)           116.0593                                         !
 ! A50   A(25,26,30)           122.4754                                         !
 ! A51   A(22,28,29)           105.5914                                         !
 ! A52   A(26,30,31)           109.6805                                         !
 ! A53   A(33,32,34)           120.1317                                         !
 ! A54   A(33,32,77)           120.2043                                         !
 ! A55   A(34,32,77)           119.6525                                         !
 ! A56   A(32,33,35)           119.3229                                         !
 ! A57   A(32,33,36)           121.2967                                         !
 ! A58   A(35,33,36)           119.3541                                         !
 ! A59   A(32,34,37)           119.8984                                         !
 ! A60   A(32,34,38)           120.372                                          !
 ! A61   A(37,34,38)           119.7207                                         !
 ! A62   A(33,35,39)           121.9174                                         !
 ! A63   A(33,35,42)           116.4749                                         !
 ! A64   A(39,35,42)           121.607                                          !
 ! A65   A(34,37,39)           121.2577                                         !
 ! A66   A(34,37,40)           121.4808                                         !
 ! A67   A(39,37,40)           117.2342                                         !
 ! A68   A(35,39,37)           117.3943                                         !
 ! A69   A(35,39,44)           119.2439                                         !
 ! A70   A(37,39,44)           122.8839                                         !
 ! A71   A(37,40,41)           109.2281                                         !
 ! A72   A(35,42,43)           110.1188                                         !
 ! A73   A(39,44,45)           113.7851                                         !
 ! A74   A(39,44,46)           127.3387                                         !
 ! A75   A(45,44,46)           117.8029                                         !
 ! A76   A(44,46,47)           119.1589                                         !
 ! A77   A(44,46,48)           122.0135                                         !
 ! A78   A(47,46,48)           118.454                                          !
 ! A79   A(46,48,49)           120.0622                                         !
 ! A80   A(46,48,52)           119.4764                                         !
 ! A81   A(49,48,52)           119.736                                          !
 ! A82   A(14,49,48)           104.3602                                         !
 ! A83   A(14,49,50)            92.5888                                         !
 ! A84   A(14,49,51)           101.0387                                         !
 ! A85   A(48,49,50)           120.4689                                         !
 ! A86   A(48,49,51)           117.8093                                         !
 ! A87   A(50,49,51)           113.835                                          !
 ! A88   A(48,52,53)           110.9782                                         !
 ! A89   A(48,52,54)           110.3343                                         !
 ! A90   A(48,52,55)           111.7447                                         !
 ! A91   A(53,52,54)           107.5351                                         !
 ! A92   A(53,52,55)           108.3938                                         !
 ! A93   A(54,52,55)           107.6981                                         !
 ! A94   A(25,56,57)           107.8359                                         !
 ! A95   A(25,56,58)           108.7879                                         !
 ! A96   A(25,56,59)           113.4845                                         !
 ! A97   A(57,56,58)           106.1611                                         !
 ! A98   A(57,56,59)           109.2567                                         !
 ! A99   A(58,56,59)           111.0092                                         !
 ! A100  A(56,59,60)           114.4062                                         !
 ! A101  A(56,59,61)           127.9259                                         !
 ! A102  A(60,59,61)           117.667                                          !
 ! A103  A(59,61,62)           120.6938                                         !
 ! A104  A(59,61,66)           124.8197                                         !
 ! A105  A(62,61,66)           114.4831                                         !
 ! A106  A(61,62,63)           110.5729                                         !
 ! A107  A(61,62,64)           112.0811                                         !
 ! A108  A(61,62,65)           110.5529                                         !
 ! A109  A(63,62,64)           108.3762                                         !
 ! A110  A(63,62,65)           106.6777                                         !
 ! A111  A(64,62,65)           108.393                                          !
 ! A112  A(61,66,67)           110.7965                                         !
 ! A113  A(61,66,68)           113.4822                                         !
 ! A114  A(61,66,69)           109.8305                                         !
 ! A115  A(67,66,68)           107.908                                          !
 ! A116  A(67,66,69)           106.7575                                         !
 ! A117  A(68,66,69)           107.7978                                         !
 ! A118  A(71,70,75)           118.4064                                         !
 ! A119  A(71,70,76)           105.4253                                         !
 ! A120  A(75,70,76)           136.1545                                         !
 ! A121  A(70,71,72)           124.2992                                         !
 ! A122  A(70,71,84)           110.3178                                         !
 ! A123  A(72,71,84)           125.3738                                         !
 ! A124  A(71,72,73)           116.0796                                         !
 ! A125  A(71,72,78)           122.6323                                         !
 ! A126  A(73,72,78)           121.2828                                         !
 ! A127  A(72,73,74)           121.302                                          !
 ! A128  A(72,73,82)           116.9751                                         !
 ! A129  A(74,73,82)           121.7229                                         !
 ! A130  A(73,74,75)           121.0486                                         !
 ! A131  A(73,74,79)           119.1866                                         !
 ! A132  A(75,74,79)           119.7648                                         !
 ! A133  A(70,75,74)           118.8619                                         !
 ! A134  A(70,75,80)           120.9661                                         !
 ! A135  A(74,75,80)           120.1718                                         !
 ! A136  A(70,76,77)           106.4215                                         !
 ! A137  A(70,76,81)           127.3792                                         !
 ! A138  A(77,76,81)           126.1096                                         !
 ! A139  A(32,77,76)           132.1165                                         !
 ! A140  A(32,77,84)           116.6335                                         !
 ! A141  A(76,77,84)           111.207                                          !
 ! A142  A(73,82,83)           109.6356                                         !
 ! A143  A(71,84,77)           106.6262                                         !
 ! D1    D(6,1,2,3)             -0.3473                                         !
 ! D2    D(6,1,2,10)           179.8691                                         !
 ! D3    D(7,1,2,3)            179.6453                                         !
 ! D4    D(7,1,2,10)            -0.1383                                         !
 ! D5    D(2,1,6,5)             -0.53                                           !
 ! D6    D(2,1,6,12)           178.9679                                         !
 ! D7    D(7,1,6,5)            179.4775                                         !
 ! D8    D(7,1,6,12)            -1.0246                                         !
 ! D9    D(1,2,3,4)              0.5003                                         !
 ! D10   D(1,2,3,8)           -179.1088                                         !
 ! D11   D(10,2,3,4)          -179.7293                                         !
 ! D12   D(10,2,3,8)             0.6616                                         !
 ! D13   D(1,2,10,11)         -179.7227                                         !
 ! D14   D(3,2,10,11)            0.5001                                         !
 ! D15   D(2,3,4,5)              0.2227                                         !
 ! D16   D(2,3,4,9)           -178.3452                                         !
 ! D17   D(8,3,4,5)            179.8323                                         !
 ! D18   D(8,3,4,9)              1.2644                                         !
 ! D19   D(3,4,5,6)             -1.0551                                         !
 ! D20   D(3,4,5,14)          -178.0047                                         !
 ! D21   D(9,4,5,6)            177.5009                                         !
 ! D22   D(9,4,5,14)             0.5513                                         !
 ! D23   D(4,5,6,1)              1.2044                                         !
 ! D24   D(4,5,6,12)          -178.3141                                         !
 ! D25   D(14,5,6,1)           178.2419                                         !
 ! D26   D(14,5,6,12)           -1.2765                                         !
 ! D27   D(4,5,14,15)         -170.1423                                         !
 ! D28   D(4,5,14,16)          -28.0402                                         !
 ! D29   D(4,5,14,49)           94.3842                                         !
 ! D30   D(6,5,14,15)           12.9874                                         !
 ! D31   D(6,5,14,16)          155.0895                                         !
 ! D32   D(6,5,14,49)          -82.4861                                         !
 ! D33   D(1,6,12,13)           -0.1407                                         !
 ! D34   D(5,6,12,13)          179.3774                                         !
 ! D35   D(5,14,16,17)          13.7379                                         !
 ! D36   D(5,14,16,18)        -158.9586                                         !
 ! D37   D(15,14,16,17)        155.6955                                         !
 ! D38   D(15,14,16,18)        -17.001                                          !
 ! D39   D(49,14,16,17)       -104.9978                                         !
 ! D40   D(49,14,16,18)         82.3057                                         !
 ! D41   D(5,14,49,48)         -64.1835                                         !
 ! D42   D(5,14,49,50)         173.4362                                         !
 ! D43   D(5,14,49,51)          58.5408                                         !
 ! D44   D(15,14,49,48)       -179.1643                                         !
 ! D45   D(15,14,49,50)         58.4554                                         !
 ! D46   D(15,14,49,51)        -56.44                                           !
 ! D47   D(16,14,49,48)         64.4361                                         !
 ! D48   D(16,14,49,50)        -57.9442                                         !
 ! D49   D(16,14,49,51)       -172.8396                                         !
 ! D50   D(14,16,18,19)        -19.4423                                         !
 ! D51   D(14,16,18,20)        163.8518                                         !
 ! D52   D(17,16,18,19)        167.6878                                         !
 ! D53   D(17,16,18,20)         -9.0181                                         !
 ! D54   D(16,18,20,21)        -22.1579                                         !
 ! D55   D(16,18,20,22)        155.5781                                         !
 ! D56   D(19,18,20,21)        161.0899                                         !
 ! D57   D(19,18,20,22)        -21.1741                                         !
 ! D58   D(18,20,21,23)        176.746                                          !
 ! D59   D(18,20,21,24)         -4.7026                                         !
 ! D60   D(22,20,21,23)         -1.0307                                         !
 ! D61   D(22,20,21,24)        177.5207                                         !
 ! D62   D(18,20,22,25)       -174.3104                                         !
 ! D63   D(18,20,22,28)          4.4069                                         !
 ! D64   D(21,20,22,25)          3.5222                                         !
 ! D65   D(21,20,22,28)       -177.7605                                         !
 ! D66   D(20,21,23,26)         -1.7025                                         !
 ! D67   D(20,21,23,27)        179.0181                                         !
 ! D68   D(24,21,23,26)        179.7363                                         !
 ! D69   D(24,21,23,27)          0.4569                                         !
 ! D70   D(20,22,25,26)         -3.1602                                         !
 ! D71   D(20,22,25,56)        174.6003                                         !
 ! D72   D(28,22,25,26)        178.088                                          !
 ! D73   D(28,22,25,56)         -4.1515                                         !
 ! D74   D(20,22,28,29)          6.8739                                         !
 ! D75   D(25,22,28,29)       -174.3606                                         !
 ! D76   D(21,23,26,25)          2.0828                                         !
 ! D77   D(21,23,26,30)       -178.2595                                         !
 ! D78   D(27,23,26,25)       -178.6191                                         !
 ! D79   D(27,23,26,30)          1.0386                                         !
 ! D80   D(22,25,26,23)          0.3175                                         !
 ! D81   D(22,25,26,30)       -179.318                                          !
 ! D82   D(56,25,26,23)       -177.3975                                         !
 ! D83   D(56,25,26,30)          2.9669                                         !
 ! D84   D(22,25,56,57)         12.0716                                         !
 ! D85   D(22,25,56,58)       -102.6561                                         !
 ! D86   D(22,25,56,59)        133.2391                                         !
 ! D87   D(26,25,56,57)       -170.2624                                         !
 ! D88   D(26,25,56,58)         75.0099                                         !
 ! D89   D(26,25,56,59)        -49.0949                                         !
 ! D90   D(23,26,30,31)       -173.0919                                         !
 ! D91   D(25,26,30,31)          6.5621                                         !
 ! D92   D(34,32,33,35)          2.941                                          !
 ! D93   D(34,32,33,36)       -178.9362                                         !
 ! D94   D(77,32,33,35)       -175.8228                                         !
 ! D95   D(77,32,33,36)          2.3                                            !
 ! D96   D(33,32,34,37)         -2.4521                                         !
 ! D97   D(33,32,34,38)        178.6347                                         !
 ! D98   D(77,32,34,37)        176.3185                                         !
 ! D99   D(77,32,34,38)         -2.5947                                         !
 ! D100  D(33,32,77,76)        157.004                                          !
 ! D101  D(33,32,77,84)        -20.365                                          !
 ! D102  D(34,32,77,76)        -21.7657                                         !
 ! D103  D(34,32,77,84)        160.8653                                         !
 ! D104  D(32,33,35,39)         -1.0297                                         !
 ! D105  D(32,33,35,42)        178.6786                                         !
 ! D106  D(36,33,35,39)       -179.1894                                         !
 ! D107  D(36,33,35,42)          0.5189                                         !
 ! D108  D(32,34,37,39)          0.012                                          !
 ! D109  D(32,34,37,40)       -178.0338                                         !
 ! D110  D(38,34,37,39)        178.9324                                         !
 ! D111  D(38,34,37,40)          0.8865                                         !
 ! D112  D(33,35,39,37)         -1.3338                                         !
 ! D113  D(33,35,39,44)        170.9663                                         !
 ! D114  D(42,35,39,37)        178.9727                                         !
 ! D115  D(42,35,39,44)         -8.7271                                         !
 ! D116  D(33,35,42,43)        166.5182                                         !
 ! D117  D(39,35,42,43)        -13.7724                                         !
 ! D118  D(34,37,39,35)          1.8404                                         !
 ! D119  D(34,37,39,44)       -170.1572                                         !
 ! D120  D(40,37,39,35)        179.9662                                         !
 ! D121  D(40,37,39,44)          7.9685                                         !
 ! D122  D(34,37,40,41)          6.8844                                         !
 ! D123  D(39,37,40,41)       -171.2369                                         !
 ! D124  D(35,39,44,45)        -34.5181                                         !
 ! D125  D(35,39,44,46)        133.2608                                         !
 ! D126  D(37,39,44,45)        137.3382                                         !
 ! D127  D(37,39,44,46)        -54.8829                                         !
 ! D128  D(39,44,46,47)          0.8737                                         !
 ! D129  D(39,44,46,48)        173.746                                          !
 ! D130  D(45,44,46,47)        168.2242                                         !
 ! D131  D(45,44,46,48)        -18.9035                                         !
 ! D132  D(44,46,48,49)         -7.1063                                         !
 ! D133  D(44,46,48,52)       -177.3251                                         !
 ! D134  D(47,46,48,49)        165.8143                                         !
 ! D135  D(47,46,48,52)         -4.4045                                         !
 ! D136  D(46,48,49,14)        -69.2756                                         !
 ! D137  D(46,48,49,50)         32.5372                                         !
 ! D138  D(46,48,49,51)        179.7169                                         !
 ! D139  D(52,48,49,14)        100.9178                                         !
 ! D140  D(52,48,49,50)       -157.2695                                         !
 ! D141  D(52,48,49,51)        -10.0897                                         !
 ! D142  D(46,48,52,53)        144.7573                                         !
 ! D143  D(46,48,52,54)        -96.1503                                         !
 ! D144  D(46,48,52,55)         23.6417                                         !
 ! D145  D(49,48,52,53)        -25.4938                                         !
 ! D146  D(49,48,52,54)         93.5986                                         !
 ! D147  D(49,48,52,55)       -146.6094                                         !
 ! D148  D(25,56,59,60)        -45.4254                                         !
 ! D149  D(25,56,59,61)        134.9274                                         !
 ! D150  D(57,56,59,60)         74.9414                                         !
 ! D151  D(57,56,59,61)       -104.7059                                         !
 ! D152  D(58,56,59,60)       -168.3152                                         !
 ! D153  D(58,56,59,61)         12.0376                                         !
 ! D154  D(56,59,61,62)       -179.7439                                         !
 ! D155  D(56,59,61,66)          0.963                                          !
 ! D156  D(60,59,61,62)          0.6188                                         !
 ! D157  D(60,59,61,66)       -178.6743                                         !
 ! D158  D(59,61,62,63)       -119.27                                           !
 ! D159  D(59,61,62,64)          1.7707                                         !
 ! D160  D(59,61,62,65)        122.8188                                         !
 ! D161  D(66,61,62,63)         60.0924                                         !
 ! D162  D(66,61,62,64)       -178.8669                                         !
 ! D163  D(66,61,62,65)        -57.8188                                         !
 ! D164  D(59,61,66,67)       -119.1378                                         !
 ! D165  D(59,61,66,68)          2.4375                                         !
 ! D166  D(59,61,66,69)        123.1636                                         !
 ! D167  D(62,61,66,67)         61.5301                                         !
 ! D168  D(62,61,66,68)       -176.8947                                         !
 ! D169  D(62,61,66,69)        -56.1685                                         !
 ! D170  D(75,70,71,72)          0.5223                                         !
 ! D171  D(75,70,71,84)       -178.4223                                         !
 ! D172  D(76,70,71,72)        179.3871                                         !
 ! D173  D(76,70,71,84)          0.4424                                         !
 ! D174  D(71,70,75,74)         -0.1596                                         !
 ! D175  D(71,70,75,80)        179.6832                                         !
 ! D176  D(76,70,75,74)       -178.5798                                         !
 ! D177  D(76,70,75,80)          1.2631                                         !
 ! D178  D(71,70,76,77)         -0.2532                                         !
 ! D179  D(71,70,76,81)       -176.9534                                         !
 ! D180  D(75,70,76,77)        178.3053                                         !
 ! D181  D(75,70,76,81)          1.6051                                         !
 ! D182  D(70,71,72,73)         -0.5692                                         !
 ! D183  D(70,71,72,78)       -179.7515                                         !
 ! D184  D(84,71,72,73)        178.217                                          !
 ! D185  D(84,71,72,78)         -0.9653                                         !
 ! D186  D(70,71,84,77)         -0.4546                                         !
 ! D187  D(72,71,84,77)       -179.3853                                         !
 ! D188  D(71,72,73,74)          0.2737                                         !
 ! D189  D(71,72,73,82)       -179.742                                          !
 ! D190  D(78,72,73,74)        179.4679                                         !
 ! D191  D(78,72,73,82)         -0.5478                                         !
 ! D192  D(72,73,74,75)          0.0486                                         !
 ! D193  D(72,73,74,79)        179.9577                                         !
 ! D194  D(82,73,74,75)       -179.935                                          !
 ! D195  D(82,73,74,79)         -0.0259                                         !
 ! D196  D(72,73,82,83)        179.3084                                         !
 ! D197  D(74,73,82,83)         -0.7074                                         !
 ! D198  D(73,74,75,70)         -0.1076                                         !
 ! D199  D(73,74,75,80)       -179.9517                                         !
 ! D200  D(79,74,75,70)        179.9838                                         !
 ! D201  D(79,74,75,80)          0.1397                                         !
 ! D202  D(70,76,77,32)       -177.4935                                         !
 ! D203  D(70,76,77,84)         -0.0161                                         !
 ! D204  D(81,76,77,32)         -0.7391                                         !
 ! D205  D(81,76,77,84)        176.7383                                         !
 ! D206  D(32,77,84,71)        178.1958                                         !
 ! D207  D(76,77,84,71)          0.289                                          !
 --------------------------------------------------------------------------------
 Stoichiometry    C39H36O9
 Framework group  C1[X(C39H36O9)]
 Deg. of freedom   246
 Full point group                 C1      NOp   1
 Largest Abelian subgroup         C1      NOp   1
 Largest concise Abelian subgroup C1      NOp   1
                         Standard orientation:                         
 ---------------------------------------------------------------------
 Center     Atomic      Atomic             Coordinates (Angstroms)
 Number     Number       Type             X           Y           Z
 ---------------------------------------------------------------------
      1          6           0       -7.982835    0.706434    0.993090
      2          6           0       -7.784288   -0.190988    2.041376
      3          6           0       -6.526903   -0.758791    2.248577
      4          6           0       -5.479879   -0.408894    1.404317
      5          6           0       -5.637401    0.497022    0.354143
      6          6           0       -6.919824    1.039430    0.158208
      7          1           0       -8.968524    1.136448    0.839934
      8          1           0       -6.368661   -1.469639    3.054428
      9          1           0       -4.512861   -0.878606    1.559295
     10          8           0       -8.858991   -0.473756    2.822382
     11          1           0       -8.599859   -1.098998    3.512150
     12          8           0       -7.079568    1.894744   -0.886984
     13          1           0       -7.997856    2.192274   -0.926186
     14          6           0       -4.534021    0.843922   -0.579851
     15          1           0       -4.749356    1.681409   -1.238215
     16          6           0       -3.200570    0.765723   -0.141293
     17          1           0       -2.967821    0.250303    0.779335
     18          6           0       -2.132547    1.474888   -0.785498
     19          8           0       -2.246058    1.908339   -1.964458
     20          6           0       -0.852029    1.626386   -0.057545
     21          6           0       -0.769631    1.529875    1.339950
     22          6           0        0.346577    1.829309   -0.778896
     23          6           0        0.437995    1.607225    1.998760
     24          1           0       -1.677330    1.414675    1.922610
     25          6           0        1.595689    1.860240   -0.137876
     26          6           0        1.618413    1.750546    1.256889
     27          1           0        0.500107    1.548352    3.079929
     28          8           0        0.324272    1.974428   -2.116697
     29          1           0       -0.636080    2.018554   -2.364326
     30          8           0        2.769006    1.782922    1.970097
     31          1           0        3.514535    1.993372    1.380336
     32          6           0        1.821406   -1.616791   -0.098578
     33          6           0        1.528055   -1.518372   -1.457248
     34          6           0        0.788852   -1.742456    0.834767
     35          6           0        0.200548   -1.484625   -1.866053
     36          1           0        2.314194   -1.437445   -2.198326
     37          6           0       -0.534121   -1.717964    0.411386
     38          1           0        1.013824   -1.841630    1.892218
     39          6           0       -0.862807   -1.568409   -0.948372
     40          8           0       -1.561816   -1.797699    1.293388
     41          1           0       -1.212363   -1.758717    2.193682
     42          8           0       -0.019066   -1.360071   -3.200633
     43          1           0       -0.942809   -1.556556   -3.405240
     44          6           0       -2.229842   -1.328332   -1.413906
     45          1           0       -2.301034   -0.576450   -2.196006
     46          6           0       -3.344362   -2.085242   -1.149949
     47          1           0       -3.249983   -2.964356   -0.517408
     48          6           0       -4.636609   -1.680008   -1.550387
     49          6           0       -4.832389   -0.412589   -2.103304
     50          1           0       -4.055270    0.052718   -2.703623
     51          1           0       -5.842043   -0.140165   -2.403343
     52          6           0       -5.826039   -2.524115   -1.178367
     53          1           0       -6.699709   -1.899310   -0.968809
     54          1           0       -6.090495   -3.195791   -2.004953
     55          1           0       -5.624859   -3.142668   -0.298467
     56          6           0        2.866681    1.957440   -0.956017
     57          1           0        2.585569    2.208296   -1.983498
     58          1           0        3.334621    0.966412   -1.000821
     59          6           0        3.837991    2.992055   -0.438561
     60          1           0        3.382286    3.949413   -0.181340
     61          6           0        5.163634    2.868143   -0.271606
     62          6           0        5.981772    4.013973    0.266789
     63          1           0        6.739174    4.323832   -0.464124
     64          1           0        5.362828    4.882034    0.511030
     65          1           0        6.523070    3.709248    1.171210
     66          6           0        5.959623    1.633939   -0.600812
     67          1           0        6.449571    1.235520    0.296475
     68          1           0        5.360731    0.834558   -1.038843
     69          1           0        6.756756    1.883874   -1.311877
     70          6           0        5.182495   -1.309635    1.380527
     71          6           0        5.374868   -1.697495    0.048633
     72          6           0        6.616471   -1.877603   -0.540988
     73          6           0        7.720697   -1.636842    0.271847
     74          6           0        7.568109   -1.239385    1.616117
     75          6           0        6.309875   -1.075631    2.174976
     76          6           0        3.756335   -1.233281    1.554706
     77          6           0        3.205879   -1.562153    0.359394
     78          1           0        6.734069   -2.174782   -1.576432
     79          1           0        8.453888   -1.061266    2.219855
     80          1           0        6.208961   -0.768486    3.210939
     81          1           0        3.219672   -0.921104    2.438009
     82          8           0        8.948013   -1.802833   -0.289816
     83          1           0        9.632900   -1.598823    0.360394
     84          8           0        4.178581   -1.845848   -0.576786
 ---------------------------------------------------------------------
 Rotational constants (GHZ):           0.1561594           0.0314120           0.0302593
 Standard basis: 6-311++G(d,p) (5D, 7F)
 There are  1356 symmetry adapted cartesian basis functions of A   symmetry.
 There are  1308 symmetry adapted basis functions of A   symmetry.
  1308 basis functions,  2052 primitive gaussians,  1356 cartesian basis functions
   171 alpha electrons      171 beta electrons
       nuclear repulsion energy      6198.1096368447 Hartrees.
 NAtoms=   84 NActive=   84 NUniq=   84 SFac= 1.00D+00 NAtFMM=   60 NAOKFM=T Big=T
 Integral buffers will be    131072 words long.
 Raffenetti 2 integral format.
 Two-electron integral symmetry is turned on.
 Nuclear repulsion after empirical dispersion term =     6198.0166785897 Hartrees.
 Using the following non-standard input for PCM:
 --- end of non-standard input.
 ------------------------------------------------------------------------------
 Polarizable Continuum Model (PCM)
 =================================
 Model                : C-PCM.
 Atomic radii         : UFF (Universal Force Field).
 Polarization charges : Total charges.
 Charge compensation  : None.
 Solution method      : On-the-fly selection.
 Cavity type          : Scaled VdW (van der Waals Surface) (Alpha=1.100).
 Cavity algorithm     : GePol (No added spheres)
                        Default sphere list used, NSphG=   84.
                        Lebedev-Laikov grids with approx.  5.0 points / Ang**2.
                        Smoothing algorithm: York/Karplus (Gamma=1.0000).
                        Polarization charges: spherical gaussians, with
                                              point-specific exponents (IZeta= 3).
                        Self-potential: point-specific (ISelfS= 7).
                        Self-field    : sphere-specific E.n sum rule (ISelfD= 2).
 Solvent              : Water, Eps=  78.355300 Eps(inf)=   1.777849
 ------------------------------------------------------------------------------
 One-electron integrals computed using PRISM.
 NBasis=  1308 RedAO= T EigKep=  1.02D-06  NBF=  1308
 NBsUse=  1288 1.00D-06 EigRej=  8.74D-07 NBFU=  1288
 Initial guess from the checkpoint file:  "MaDA-TS-2-conf-1.chk"
 B after Tr=     0.000000   -0.000000   -0.000000
         Rot=    1.000000    0.000000   -0.000000   -0.000000 Ang=   0.00 deg.
 Requested convergence on RMS density matrix=1.00D-08 within 128 cycles.
 Requested convergence on MAX density matrix=1.00D-06.
 Requested convergence on             energy=1.00D-06.
 No special actions if energy rises.
 Inv3:  Mode=1 IEnd=    81088803.
 Iteration    1 A*A^-1 deviation from unit magnitude is 3.77D-15 for    817.
 Iteration    1 A*A^-1 deviation from orthogonality  is 2.44D-15 for   4054   1911.
 Iteration    1 A^-1*A deviation from unit magnitude is 3.77D-15 for    817.
 Iteration    1 A^-1*A deviation from orthogonality  is 2.22D-15 for   3868   2127.
 Error on total polarization charges =  0.02259
 SCF Done:  E(RwB97XD) =  -2184.69730533     A.U. after   17 cycles
            NFock= 17  Conv=0.34D-08     -V/T= 2.0041

 **********************************************************************

            Population analysis using the SCF density.

 **********************************************************************

 Orbital symmetries:
       Occupied  (A) (A) (A) (A) (A) (A) (A) (A) (A) (A) (A) (A)
                 (A) (A) (A) (A) (A) (A) (A) (A) (A) (A) (A) (A)
                 (A) (A) (A) (A) (A) (A) (A) (A) (A) (A) (A) (A)
                 (A) (A) (A) (A) (A) (A) (A) (A) (A) (A) (A) (A)
                 (A) (A) (A) (A) (A) (A) (A) (A) (A) (A) (A) (A)
                 (A) (A) (A) (A) (A) (A) (A) (A) (A) (A) (A) (A)
                 (A) (A) (A) (A) (A) (A) (A) (A) (A) (A) (A) (A)
                 (A) (A) (A) (A) (A) (A) (A) (A) (A) (A) (A) (A)
                 (A) (A) (A) (A) (A) (A) (A) (A) (A) (A) (A) (A)
                 (A) (A) (A) (A) (A) (A) (A) (A) (A) (A) (A) (A)
                 (A) (A) (A) (A) (A) (A) (A) (A) (A) (A) (A) (A)
                 (A) (A) (A) (A) (A) (A) (A) (A) (A) (A) (A) (A)
                 (A) (A) (A) (A) (A) (A) (A) (A) (A) (A) (A) (A)
                 (A) (A) (A) (A) (A) (A) (A) (A) (A) (A) (A) (A)
                 (A) (A) (A)
       Virtual   (A) (A) (A) (A) (A) (A) (A) (A) (A) (A) (A) (A)
                 (A) (A) (A) (A) (A) (A) (A) (A) (A) (A) (A) (A)
                 (A) (A) (A) (A) (A) (A) (A) (A) (A) (A) (A) (A)
                 (A) (A) (A) (A) (A) (A) (A) (A) (A) (A) (A) (A)
                 (A) (A) (A) (A) (A) (A) (A) (A) (A) (A) (A) (A)
                 (A) (A) (A) (A) (A) (A) (A) (A) (A) (A) (A) (A)
                 (A) (A) (A) (A) (A) (A) (A) (A) (A) (A) (A) (A)
                 (A) (A) (A) (A) (A) (A) (A) (A) (A) (A) (A) (A)
                 (A) (A) (A) (A) (A) (A) (A) (A) (A) (A) (A) (A)
                 (A) (A) (A) (A) (A) (A) (A) (A) (A) (A) (A) (A)
                 (A) (A) (A) (A) (A) (A) (A) (A) (A) (A) (A) (A)
                 (A) (A) (A) (A) (A) (A) (A) (A) (A) (A) (A) (A)
                 (A) (A) (A) (A) (A) (A) (A) (A) (A) (A) (A) (A)
                 (A) (A) (A) (A) (A) (A) (A) (A) (A) (A) (A) (A)
                 (A) (A) (A) (A) (A) (A) (A) (A) (A) (A) (A) (A)
                 (A) (A) (A) (A) (A) (A) (A) (A) (A) (A) (A) (A)
                 (A) (A) (A) (A) (A) (A) (A) (A) (A) (A) (A) (A)
                 (A) (A) (A) (A) (A) (A) (A) (A) (A) (A) (A) (A)
                 (A) (A) (A) (A) (A) (A) (A) (A) (A) (A) (A) (A)
                 (A) (A) (A) (A) (A) (A) (A) (A) (A) (A) (A) (A)
                 (A) (A) (A) (A) (A) (A) (A) (A) (A) (A) (A) (A)
                 (A) (A) (A) (A) (A) (A) (A) (A) (A) (A) (A) (A)
                 (A) (A) (A) (A) (A) (A) (A) (A) (A) (A) (A) (A)
                 (A) (A) (A) (A) (A) (A) (A) (A) (A) (A) (A) (A)
                 (A) (A) (A) (A) (A) (A) (A) (A) (A) (A) (A) (A)
                 (A) (A) (A) (A) (A) (A) (A) (A) (A) (A) (A) (A)
                 (A) (A) (A) (A) (A) (A) (A) (A) (A) (A) (A) (A)
                 (A) (A) (A) (A) (A) (A) (A) (A) (A) (A) (A) (A)
                 (A) (A) (A) (A) (A) (A) (A) (A) (A) (A) (A) (A)
                 (A) (A) (A) (A) (A) (A) (A) (A) (A) (A) (A) (A)
                 (A) (A) (A) (A) (A) (A) (A) (A) (A) (A) (A) (A)
                 (A) (A) (A) (A) (A) (A) (A) (A) (A) (A) (A) (A)
                 (A) (A) (A) (A) (A) (A) (A) (A) (A) (A) (A) (A)
                 (A) (A) (A) (A) (A) (A) (A) (A) (A) (A) (A) (A)
                 (A) (A) (A) (A) (A) (A) (A) (A) (A) (A) (A) (A)
                 (A) (A) (A) (A) (A) (A) (A) (A) (A) (A) (A) (A)
                 (A) (A) (A) (A) (A) (A) (A) (A) (A) (A) (A) (A)
                 (A) (A) (A) (A) (A) (A) (A) (A) (A) (A) (A) (A)
                 (A) (A) (A) (A) (A) (A) (A) (A) (A) (A) (A) (A)
                 (A) (A) (A) (A) (A) (A) (A) (A) (A) (A) (A) (A)
                 (A) (A) (A) (A) (A) (A) (A) (A) (A) (A) (A) (A)
                 (A) (A) (A) (A) (A) (A) (A) (A) (A) (A) (A) (A)
                 (A) (A) (A) (A) (A) (A) (A) (A) (A) (A) (A) (A)
                 (A) (A) (A) (A) (A) (A) (A) (A) (A) (A) (A) (A)
                 (A) (A) (A) (A) (A) (A) (A) (A) (A) (A) (A) (A)
                 (A) (A) (A) (A) (A) (A) (A) (A) (A) (A) (A) (A)
                 (A) (A) (A) (A) (A) (A) (A) (A) (A) (A) (A) (A)
                 (A) (A) (A) (A) (A) (A) (A) (A) (A) (A) (A) (A)
                 (A) (A) (A) (A) (A) (A) (A) (A) (A) (A) (A) (A)
                 (A) (A) (A) (A) (A) (A) (A) (A) (A) (A) (A) (A)
                 (A) (A) (A) (A) (A) (A) (A) (A) (A) (A) (A) (A)
                 (A) (A) (A) (A) (A) (A) (A) (A) (A) (A) (A) (A)
                 (A) (A) (A) (A) (A) (A) (A) (A) (A) (A) (A) (A)
                 (A) (A) (A) (A) (A) (A) (A) (A) (A) (A) (A) (A)
                 (A) (A) (A) (A) (A) (A) (A) (A) (A) (A) (A) (A)
                 (A) (A) (A) (A) (A) (A) (A) (A) (A) (A) (A) (A)
                 (A) (A) (A) (A) (A) (A) (A) (A) (A) (A) (A) (A)
                 (A) (A) (A) (A) (A) (A) (A) (A) (A) (A) (A) (A)
                 (A) (A) (A) (A) (A) (A) (A) (A) (A) (A) (A) (A)
                 (A) (A) (A) (A) (A) (A) (A) (A) (A) (A) (A) (A)
                 (A) (A) (A) (A) (A) (A) (A) (A) (A) (A) (A) (A)
                 (A) (A) (A) (A) (A) (A) (A) (A) (A) (A) (A) (A)
                 (A) (A) (A) (A) (A) (A) (A) (A) (A) (A) (A) (A)
                 (A) (A) (A) (A) (A) (A) (A) (A) (A) (A) (A) (A)
                 (A) (A) (A) (A) (A) (A) (A) (A) (A) (A) (A) (A)
                 (A) (A) (A) (A) (A) (A) (A) (A) (A) (A) (A) (A)
                 (A) (A) (A) (A) (A) (A) (A) (A) (A) (A) (A) (A)
                 (A) (A) (A) (A) (A) (A) (A) (A) (A) (A) (A) (A)
                 (A) (A) (A) (A) (A) (A) (A) (A) (A) (A) (A) (A)
                 (A) (A) (A) (A) (A) (A) (A) (A) (A) (A) (A) (A)
                 (A) (A) (A) (A) (A) (A) (A) (A) (A) (A) (A) (A)
                 (A) (A) (A) (A) (A) (A) (A) (A) (A) (A) (A) (A)
                 (A) (A) (A) (A) (A) (A) (A) (A) (A) (A) (A) (A)
                 (A) (A) (A) (A) (A) (A) (A) (A) (A) (A) (A) (A)
                 (A) (A) (A) (A) (A) (A) (A) (A) (A) (A) (A) (A)
                 (A) (A) (A) (A) (A) (A) (A) (A) (A) (A) (A) (A)
                 (A) (A) (A) (A) (A) (A) (A) (A) (A) (A) (A) (A)
                 (A) (A) (A) (A) (A) (A) (A) (A) (A) (A) (A) (A)
                 (A) (A) (A) (A) (A) (A) (A) (A) (A) (A) (A) (A)
                 (A) (A) (A) (A) (A) (A) (A) (A) (A) (A) (A) (A)
                 (A) (A) (A) (A) (A) (A) (A) (A) (A) (A) (A) (A)
                 (A) (A) (A) (A) (A) (A) (A) (A) (A) (A) (A) (A)
                 (A) (A) (A) (A) (A) (A) (A) (A) (A) (A) (A) (A)
                 (A) (A) (A) (A) (A) (A) (A) (A) (A) (A) (A) (A)
                 (A) (A) (A) (A) (A) (A) (A) (A) (A) (A) (A) (A)
                 (A) (A) (A) (A) (A) (A) (A) (A) (A) (A) (A) (A)
                 (A) (A) (A) (A) (A) (A) (A) (A) (A) (A) (A) (A)
                 (A) (A) (A) (A) (A) (A) (A) (A) (A) (A) (A) (A)
                 (A) (A) (A) (A) (A) (A) (A) (A) (A) (A) (A) (A)
                 (A) (A) (A) (A) (A) (A) (A) (A) (A) (A) (A) (A)
                 (A) (A) (A) (A) (A) (A) (A) (A) (A) (A) (A) (A)
                 (A) (A) (A) (A) (A) (A) (A) (A) (A) (A) (A) (A)
                 (A) (A) (A) (A) (A) (A) (A) (A) (A) (A) (A) (A)
                 (A)
 The electronic state is 1-A.
 Alpha  occ. eigenvalues --  -19.32303 -19.29212 -19.29165 -19.29093 -19.28961
 Alpha  occ. eigenvalues --  -19.28883 -19.28129 -19.26871 -19.22856 -10.37315
 Alpha  occ. eigenvalues --  -10.36881 -10.36649 -10.36499 -10.36422 -10.36340
 Alpha  occ. eigenvalues --  -10.36118 -10.35989 -10.35851 -10.35651 -10.32229
 Alpha  occ. eigenvalues --  -10.32156 -10.32119 -10.31508 -10.30717 -10.30579
 Alpha  occ. eigenvalues --  -10.30304 -10.30098 -10.30032 -10.29911 -10.29908
 Alpha  occ. eigenvalues --  -10.29838 -10.29706 -10.29666 -10.29655 -10.29565
 Alpha  occ. eigenvalues --  -10.29495 -10.29339 -10.29299 -10.29188 -10.29150
 Alpha  occ. eigenvalues --  -10.28968 -10.28894 -10.28506 -10.28198 -10.28159
 Alpha  occ. eigenvalues --  -10.28129 -10.27707 -10.27626  -1.22938  -1.18422
 Alpha  occ. eigenvalues --   -1.18170  -1.18153  -1.17897  -1.17865  -1.17414
 Alpha  occ. eigenvalues --   -1.17086  -1.12682  -0.97929  -0.97168  -0.97010
 Alpha  occ. eigenvalues --   -0.96189  -0.94878  -0.92838  -0.92060  -0.90500
 Alpha  occ. eigenvalues --   -0.89656  -0.88575  -0.86572  -0.86011  -0.85504
 Alpha  occ. eigenvalues --   -0.85424  -0.84953  -0.83583  -0.82055  -0.81976
 Alpha  occ. eigenvalues --   -0.79696  -0.79293  -0.76692  -0.75897  -0.75185
 Alpha  occ. eigenvalues --   -0.74512  -0.73983  -0.72866  -0.72767  -0.71616
 Alpha  occ. eigenvalues --   -0.70713  -0.70112  -0.69673  -0.69567  -0.66914
 Alpha  occ. eigenvalues --   -0.66804  -0.65418  -0.64143  -0.64005  -0.62654
 Alpha  occ. eigenvalues --   -0.61784  -0.61675  -0.60398  -0.60163  -0.60004
 Alpha  occ. eigenvalues --   -0.59879  -0.59660  -0.59032  -0.58565  -0.57698
 Alpha  occ. eigenvalues --   -0.57378  -0.56850  -0.56665  -0.56028  -0.55879
 Alpha  occ. eigenvalues --   -0.55071  -0.54677  -0.54041  -0.53725  -0.53570
 Alpha  occ. eigenvalues --   -0.53305  -0.52781  -0.52748  -0.52463  -0.51688
 Alpha  occ. eigenvalues --   -0.51533  -0.51328  -0.51163  -0.51123  -0.50933
 Alpha  occ. eigenvalues --   -0.50412  -0.50171  -0.49934  -0.49783  -0.49533
 Alpha  occ. eigenvalues --   -0.49473  -0.49264  -0.48648  -0.48025  -0.47916
 Alpha  occ. eigenvalues --   -0.47749  -0.47091  -0.47057  -0.46900  -0.46657
 Alpha  occ. eigenvalues --   -0.46549  -0.46277  -0.46122  -0.45867  -0.45571
 Alpha  occ. eigenvalues --   -0.44985  -0.44575  -0.44467  -0.43812  -0.43776
 Alpha  occ. eigenvalues --   -0.43682  -0.43486  -0.43186  -0.42774  -0.42332
 Alpha  occ. eigenvalues --   -0.41756  -0.41229  -0.40800  -0.38284  -0.36804
 Alpha  occ. eigenvalues --   -0.34731  -0.33435  -0.32914  -0.32683  -0.32536
 Alpha  occ. eigenvalues --   -0.31056  -0.30809  -0.30121  -0.29300  -0.28087
 Alpha  occ. eigenvalues --   -0.27104
 Alpha virt. eigenvalues --   -0.03220   0.00167   0.02997   0.03800   0.04110
 Alpha virt. eigenvalues --    0.04513   0.04632   0.04830   0.04963   0.05043
 Alpha virt. eigenvalues --    0.05409   0.05439   0.05479   0.05882   0.06042
 Alpha virt. eigenvalues --    0.06090   0.06380   0.06667   0.06825   0.06961
 Alpha virt. eigenvalues --    0.07049   0.07180   0.07393   0.07758   0.07890
 Alpha virt. eigenvalues --    0.08261   0.08401   0.08542   0.08690   0.08941
 Alpha virt. eigenvalues --    0.09273   0.09567   0.09731   0.09842   0.10054
 Alpha virt. eigenvalues --    0.10357   0.10710   0.11051   0.11138   0.11498
 Alpha virt. eigenvalues --    0.11568   0.11841   0.12104   0.12366   0.12511
 Alpha virt. eigenvalues --    0.12966   0.13186   0.13393   0.13561   0.13852
 Alpha virt. eigenvalues --    0.13895   0.14293   0.14311   0.14405   0.14602
 Alpha virt. eigenvalues --    0.14837   0.14980   0.15203   0.15274   0.15331
 Alpha virt. eigenvalues --    0.15612   0.15893   0.16133   0.16218   0.16326
 Alpha virt. eigenvalues --    0.16524   0.16642   0.16691   0.16971   0.17019
 Alpha virt. eigenvalues --    0.17200   0.17327   0.17457   0.17703   0.17826
 Alpha virt. eigenvalues --    0.17993   0.18184   0.18317   0.18431   0.18536
 Alpha virt. eigenvalues --    0.18666   0.18703   0.18804   0.19056   0.19180
 Alpha virt. eigenvalues --    0.19301   0.19453   0.19728   0.19970   0.20238
 Alpha virt. eigenvalues --    0.20249   0.20362   0.20453   0.20545   0.20714
 Alpha virt. eigenvalues --    0.20944   0.21129   0.21376   0.21404   0.21538
 Alpha virt. eigenvalues --    0.21738   0.21952   0.22062   0.22287   0.22315
 Alpha virt. eigenvalues --    0.22362   0.22530   0.22621   0.22821   0.22931
 Alpha virt. eigenvalues --    0.22993   0.23168   0.23591   0.23630   0.23915
 Alpha virt. eigenvalues --    0.23940   0.24119   0.24283   0.24451   0.24469
 Alpha virt. eigenvalues --    0.24759   0.24900   0.25010   0.25174   0.25316
 Alpha virt. eigenvalues --    0.25427   0.25481   0.25627   0.25707   0.25804
 Alpha virt. eigenvalues --    0.25879   0.26071   0.26201   0.26522   0.26638
 Alpha virt. eigenvalues --    0.26786   0.26859   0.27190   0.27403   0.27483
 Alpha virt. eigenvalues --    0.27633   0.27684   0.27903   0.28096   0.28333
 Alpha virt. eigenvalues --    0.28558   0.28776   0.28898   0.29107   0.29339
 Alpha virt. eigenvalues --    0.29459   0.29652   0.29748   0.29989   0.30057
 Alpha virt. eigenvalues --    0.30268   0.30374   0.30448   0.30707   0.30789
 Alpha virt. eigenvalues --    0.30865   0.30943   0.31207   0.31287   0.31395
 Alpha virt. eigenvalues --    0.31542   0.31660   0.31842   0.32087   0.32233
 Alpha virt. eigenvalues --    0.32322   0.32456   0.32622   0.32923   0.32985
 Alpha virt. eigenvalues --    0.33155   0.33346   0.33513   0.33684   0.33785
 Alpha virt. eigenvalues --    0.33906   0.34280   0.34436   0.34528   0.34552
 Alpha virt. eigenvalues --    0.34669   0.35072   0.35131   0.35215   0.35428
 Alpha virt. eigenvalues --    0.35546   0.35711   0.35905   0.36046   0.36241
 Alpha virt. eigenvalues --    0.36269   0.36317   0.36575   0.36611   0.36804
 Alpha virt. eigenvalues --    0.37019   0.37160   0.37288   0.37365   0.37642
 Alpha virt. eigenvalues --    0.37822   0.37972   0.38157   0.38331   0.38417
 Alpha virt. eigenvalues --    0.38707   0.38796   0.38901   0.39033   0.39095
 Alpha virt. eigenvalues --    0.39258   0.39516   0.39672   0.39794   0.40051
 Alpha virt. eigenvalues --    0.40193   0.40324   0.40522   0.40728   0.40903
 Alpha virt. eigenvalues --    0.40961   0.41240   0.41492   0.41543   0.41602
 Alpha virt. eigenvalues --    0.41784   0.42037   0.42124   0.42258   0.42638
 Alpha virt. eigenvalues --    0.42744   0.42911   0.43096   0.43221   0.43286
 Alpha virt. eigenvalues --    0.43695   0.43803   0.43999   0.44111   0.44273
 Alpha virt. eigenvalues --    0.44371   0.44789   0.44810   0.44992   0.45155
 Alpha virt. eigenvalues --    0.45361   0.45814   0.45982   0.46349   0.46516
 Alpha virt. eigenvalues --    0.46798   0.46948   0.47038   0.47268   0.47421
 Alpha virt. eigenvalues --    0.47732   0.47945   0.48363   0.48639   0.48673
 Alpha virt. eigenvalues --    0.48778   0.49097   0.49254   0.49526   0.49824
 Alpha virt. eigenvalues --    0.50187   0.50469   0.50760   0.50939   0.51126
 Alpha virt. eigenvalues --    0.51286   0.51427   0.51569   0.52037   0.52219
 Alpha virt. eigenvalues --    0.52442   0.52650   0.52920   0.53322   0.53653
 Alpha virt. eigenvalues --    0.54165   0.54347   0.54580   0.54846   0.55184
 Alpha virt. eigenvalues --    0.55582   0.55825   0.56011   0.56626   0.56900
 Alpha virt. eigenvalues --    0.57013   0.57514   0.57609   0.58081   0.58763
 Alpha virt. eigenvalues --    0.59455   0.59646   0.59911   0.60011   0.60461
 Alpha virt. eigenvalues --    0.60822   0.61150   0.61470   0.61900   0.62662
 Alpha virt. eigenvalues --    0.62948   0.63213   0.63401   0.63953   0.64677
 Alpha virt. eigenvalues --    0.64859   0.65021   0.65885   0.65979   0.66235
 Alpha virt. eigenvalues --    0.66343   0.66606   0.66884   0.67112   0.67222
 Alpha virt. eigenvalues --    0.67592   0.68125   0.68547   0.68688   0.68809
 Alpha virt. eigenvalues --    0.69112   0.69271   0.69370   0.69625   0.69657
 Alpha virt. eigenvalues --    0.69914   0.70575   0.70757   0.71022   0.71176
 Alpha virt. eigenvalues --    0.71398   0.72035   0.72152   0.72329   0.72620
 Alpha virt. eigenvalues --    0.72757   0.73320   0.73442   0.73694   0.74050
 Alpha virt. eigenvalues --    0.74193   0.74416   0.74901   0.75405   0.75699
 Alpha virt. eigenvalues --    0.75852   0.76139   0.76560   0.76764   0.76881
 Alpha virt. eigenvalues --    0.77468   0.77690   0.78120   0.78303   0.78787
 Alpha virt. eigenvalues --    0.78920   0.79073   0.79230   0.79606   0.79714
 Alpha virt. eigenvalues --    0.79991   0.80437   0.80826   0.81000   0.81373
 Alpha virt. eigenvalues --    0.81509   0.81743   0.81938   0.82093   0.82252
 Alpha virt. eigenvalues --    0.82506   0.82920   0.83089   0.83448   0.83492
 Alpha virt. eigenvalues --    0.83736   0.83896   0.84128   0.84486   0.84593
 Alpha virt. eigenvalues --    0.84678   0.85163   0.85431   0.85508   0.85930
 Alpha virt. eigenvalues --    0.86011   0.86464   0.86502   0.86847   0.86916
 Alpha virt. eigenvalues --    0.87097   0.87339   0.87586   0.87821   0.88251
 Alpha virt. eigenvalues --    0.88508   0.88864   0.89063   0.89393   0.89708
 Alpha virt. eigenvalues --    0.89967   0.90203   0.90383   0.90745   0.91035
 Alpha virt. eigenvalues --    0.91307   0.91392   0.91966   0.92205   0.92547
 Alpha virt. eigenvalues --    0.92677   0.93022   0.93282   0.93755   0.94310
 Alpha virt. eigenvalues --    0.94629   0.94795   0.95117   0.95623   0.95724
 Alpha virt. eigenvalues --    0.96054   0.96382   0.96677   0.97052   0.97446
 Alpha virt. eigenvalues --    0.98054   0.98272   0.98462   0.98631   0.99261
 Alpha virt. eigenvalues --    0.99307   0.99770   1.00356   1.00464   1.00673
 Alpha virt. eigenvalues --    1.01427   1.01487   1.01558   1.01960   1.02389
 Alpha virt. eigenvalues --    1.02870   1.03316   1.03529   1.03786   1.04346
 Alpha virt. eigenvalues --    1.04581   1.04950   1.05177   1.05351   1.06043
 Alpha virt. eigenvalues --    1.06257   1.06382   1.07186   1.07526   1.07936
 Alpha virt. eigenvalues --    1.08003   1.08449   1.08844   1.09476   1.10006
 Alpha virt. eigenvalues --    1.10256   1.10475   1.10605   1.10784   1.11207
 Alpha virt. eigenvalues --    1.12164   1.12358   1.12789   1.13009   1.13434
 Alpha virt. eigenvalues --    1.13801   1.14215   1.14296   1.14787   1.15377
 Alpha virt. eigenvalues --    1.15870   1.16046   1.16295   1.16678   1.16866
 Alpha virt. eigenvalues --    1.17241   1.17458   1.17800   1.18037   1.18562
 Alpha virt. eigenvalues --    1.18793   1.19137   1.19375   1.20197   1.20489
 Alpha virt. eigenvalues --    1.20728   1.21294   1.21903   1.22379   1.22757
 Alpha virt. eigenvalues --    1.23065   1.23382   1.23869   1.24301   1.24402
 Alpha virt. eigenvalues --    1.25528   1.26000   1.26611   1.26790   1.27004
 Alpha virt. eigenvalues --    1.27136   1.27469   1.27686   1.28254   1.28625
 Alpha virt. eigenvalues --    1.29009   1.29649   1.29778   1.30339   1.30583
 Alpha virt. eigenvalues --    1.30682   1.31552   1.32045   1.32424   1.32618
 Alpha virt. eigenvalues --    1.32846   1.33143   1.33406   1.34064   1.34370
 Alpha virt. eigenvalues --    1.34828   1.35648   1.36183   1.36388   1.37216
 Alpha virt. eigenvalues --    1.37712   1.38305   1.38718   1.39519   1.39975
 Alpha virt. eigenvalues --    1.40889   1.41215   1.41488   1.41768   1.42234
 Alpha virt. eigenvalues --    1.42576   1.43340   1.43470   1.44352   1.44700
 Alpha virt. eigenvalues --    1.45629   1.45963   1.46235   1.46898   1.47184
 Alpha virt. eigenvalues --    1.48410   1.48943   1.49405   1.49575   1.49752
 Alpha virt. eigenvalues --    1.49889   1.50668   1.50780   1.51344   1.52048
 Alpha virt. eigenvalues --    1.52587   1.52862   1.53974   1.54423   1.54717
 Alpha virt. eigenvalues --    1.55489   1.55856   1.56617   1.56886   1.56998
 Alpha virt. eigenvalues --    1.57682   1.58203   1.58614   1.58784   1.59242
 Alpha virt. eigenvalues --    1.59645   1.60481   1.60872   1.61303   1.61644
 Alpha virt. eigenvalues --    1.61985   1.62130   1.62521   1.62661   1.62877
 Alpha virt. eigenvalues --    1.63687   1.64334   1.64813   1.65007   1.65125
 Alpha virt. eigenvalues --    1.65497   1.65972   1.66239   1.66929   1.67193
 Alpha virt. eigenvalues --    1.67612   1.68058   1.68316   1.68645   1.68968
 Alpha virt. eigenvalues --    1.69066   1.69084   1.69442   1.69750   1.69971
 Alpha virt. eigenvalues --    1.70265   1.70621   1.70872   1.71331   1.71748
 Alpha virt. eigenvalues --    1.71870   1.71948   1.72358   1.73042   1.73407
 Alpha virt. eigenvalues --    1.73894   1.74232   1.74527   1.75177   1.75457
 Alpha virt. eigenvalues --    1.75980   1.76202   1.76646   1.77103   1.77795
 Alpha virt. eigenvalues --    1.77996   1.79012   1.79119   1.79429   1.79916
 Alpha virt. eigenvalues --    1.80363   1.80696   1.81211   1.81690   1.82136
 Alpha virt. eigenvalues --    1.82385   1.82687   1.83691   1.84014   1.84560
 Alpha virt. eigenvalues --    1.84748   1.85016   1.85786   1.86365   1.86953
 Alpha virt. eigenvalues --    1.87277   1.87604   1.88237   1.88642   1.89111
 Alpha virt. eigenvalues --    1.89277   1.89813   1.90172   1.90289   1.91368
 Alpha virt. eigenvalues --    1.91510   1.91844   1.92243   1.92746   1.93108
 Alpha virt. eigenvalues --    1.93415   1.93798   1.94506   1.94724   1.95266
 Alpha virt. eigenvalues --    1.95641   1.96065   1.96233   1.96859   1.97350
 Alpha virt. eigenvalues --    1.97762   1.98095   1.98174   1.98655   1.99210
 Alpha virt. eigenvalues --    1.99303   1.99924   2.00486   2.00687   2.01263
 Alpha virt. eigenvalues --    2.01558   2.02288   2.02519   2.03225   2.03826
 Alpha virt. eigenvalues --    2.03997   2.04151   2.04997   2.05131   2.05302
 Alpha virt. eigenvalues --    2.06058   2.06499   2.06841   2.07040   2.07538
 Alpha virt. eigenvalues --    2.08208   2.08518   2.08645   2.08933   2.09007
 Alpha virt. eigenvalues --    2.09881   2.10058   2.10250   2.10522   2.10970
 Alpha virt. eigenvalues --    2.11119   2.11566   2.11785   2.12366   2.12699
 Alpha virt. eigenvalues --    2.13053   2.13421   2.14012   2.14853   2.15041
 Alpha virt. eigenvalues --    2.15234   2.15337   2.16466   2.16763   2.16905
 Alpha virt. eigenvalues --    2.17417   2.17861   2.18140   2.18363   2.18665
 Alpha virt. eigenvalues --    2.20013   2.20316   2.20933   2.20966   2.21780
 Alpha virt. eigenvalues --    2.22336   2.22883   2.23391   2.23964   2.24471
 Alpha virt. eigenvalues --    2.24577   2.25145   2.25976   2.26478   2.26809
 Alpha virt. eigenvalues --    2.27631   2.28100   2.28197   2.28967   2.29231
 Alpha virt. eigenvalues --    2.30045   2.30305   2.30836   2.31209   2.31725
 Alpha virt. eigenvalues --    2.32554   2.33461   2.34234   2.34998   2.35397
 Alpha virt. eigenvalues --    2.36828   2.37304   2.38427   2.39111   2.41042
 Alpha virt. eigenvalues --    2.41389   2.41881   2.42110   2.42488   2.42877
 Alpha virt. eigenvalues --    2.43442   2.43924   2.44062   2.45744   2.46094
 Alpha virt. eigenvalues --    2.46357   2.47010   2.47329   2.48648   2.49401
 Alpha virt. eigenvalues --    2.50242   2.51257   2.51930   2.52864   2.52962
 Alpha virt. eigenvalues --    2.54747   2.55403   2.56020   2.56256   2.57318
 Alpha virt. eigenvalues --    2.58016   2.58495   2.58747   2.59419   2.60456
 Alpha virt. eigenvalues --    2.60996   2.61188   2.61673   2.62954   2.63376
 Alpha virt. eigenvalues --    2.64407   2.64642   2.66017   2.66137   2.66555
 Alpha virt. eigenvalues --    2.67527   2.68754   2.68853   2.69339   2.70675
 Alpha virt. eigenvalues --    2.70747   2.71931   2.72081   2.73202   2.74222
 Alpha virt. eigenvalues --    2.74386   2.75570   2.76353   2.76547   2.77554
 Alpha virt. eigenvalues --    2.78115   2.78459   2.78836   2.79273   2.80465
 Alpha virt. eigenvalues --    2.80956   2.81596   2.81659   2.82012   2.82749
 Alpha virt. eigenvalues --    2.82846   2.83133   2.83931   2.84358   2.84693
 Alpha virt. eigenvalues --    2.85695   2.86243   2.86794   2.86887   2.86996
 Alpha virt. eigenvalues --    2.87692   2.88411   2.88954   2.89870   2.90176
 Alpha virt. eigenvalues --    2.90313   2.90671   2.91020   2.91634   2.91981
 Alpha virt. eigenvalues --    2.92384   2.92784   2.93538   2.93727   2.94464
 Alpha virt. eigenvalues --    2.94787   2.95173   2.95507   2.95798   2.96422
 Alpha virt. eigenvalues --    2.97325   2.97355   2.97619   2.98357   2.99000
 Alpha virt. eigenvalues --    2.99451   2.99873   3.00884   3.01043   3.01358
 Alpha virt. eigenvalues --    3.01576   3.01957   3.02193   3.02640   3.03798
 Alpha virt. eigenvalues --    3.04396   3.05299   3.05720   3.06497   3.07293
 Alpha virt. eigenvalues --    3.08263   3.08379   3.09514   3.10740   3.11103
 Alpha virt. eigenvalues --    3.11401   3.12911   3.13092   3.13688   3.14778
 Alpha virt. eigenvalues --    3.15474   3.16365   3.16627   3.17160   3.17304
 Alpha virt. eigenvalues --    3.17421   3.17738   3.18078   3.18301   3.18561
 Alpha virt. eigenvalues --    3.19085   3.19449   3.19691   3.20259   3.21340
 Alpha virt. eigenvalues --    3.21468   3.21918   3.22492   3.22792   3.22932
 Alpha virt. eigenvalues --    3.23295   3.24054   3.24558   3.24889   3.25204
 Alpha virt. eigenvalues --    3.25964   3.26482   3.27013   3.27132   3.27349
 Alpha virt. eigenvalues --    3.27572   3.27709   3.28743   3.29470   3.29971
 Alpha virt. eigenvalues --    3.30254   3.30508   3.31261   3.31373   3.31632
 Alpha virt. eigenvalues --    3.32462   3.33020   3.33451   3.34481   3.34718
 Alpha virt. eigenvalues --    3.35338   3.36396   3.37328   3.37406   3.39468
 Alpha virt. eigenvalues --    3.40758   3.41517   3.43073   3.44271   3.44861
 Alpha virt. eigenvalues --    3.45250   3.45803   3.47087   3.48513   3.50329
 Alpha virt. eigenvalues --    3.52041   3.53031   3.54299   3.55031   3.55840
 Alpha virt. eigenvalues --    3.56504   3.56662   3.57450   3.58676   3.59654
 Alpha virt. eigenvalues --    3.59839   3.60251   3.61154   3.62285   3.63869
 Alpha virt. eigenvalues --    3.65493   3.66975   3.69251   3.70129   3.70680
 Alpha virt. eigenvalues --    3.71479   3.72803   3.73028   3.73748   3.75708
 Alpha virt. eigenvalues --    3.76464   3.77873   3.78741   3.79145   3.82007
 Alpha virt. eigenvalues --    3.82639   3.83844   3.85751   3.87066   3.88672
 Alpha virt. eigenvalues --    3.89365   3.91108   3.92680   3.93031   3.93800
 Alpha virt. eigenvalues --    3.94278   3.94765   3.95459   3.96136   3.98670
 Alpha virt. eigenvalues --    4.00195   4.00339   4.01480   4.01889   4.03042
 Alpha virt. eigenvalues --    4.03476   4.04674   4.06404   4.07040   4.12416
 Alpha virt. eigenvalues --    4.15310   4.16596   4.18662   4.19657   4.20390
 Alpha virt. eigenvalues --    4.22076   4.22699   4.23262   4.24484   4.29183
 Alpha virt. eigenvalues --    4.29998   4.30660   4.30943   4.31836   4.33799
 Alpha virt. eigenvalues --    4.34233   4.37441   4.37929   4.38959   4.41136
 Alpha virt. eigenvalues --    4.44176   4.44891   4.50108   4.52642   4.58293
 Alpha virt. eigenvalues --    4.61622   4.68123   4.74328   4.93111   4.95279
 Alpha virt. eigenvalues --    4.96391   4.96522   5.11891   5.13088   5.15234
 Alpha virt. eigenvalues --    5.18300   5.20078   5.23418   5.25133   5.27731
 Alpha virt. eigenvalues --    5.30377   5.47948   5.55005   5.55747   5.59086
 Alpha virt. eigenvalues --    5.62356   5.63227   5.63535   5.66233   5.67860
 Alpha virt. eigenvalues --    5.84778   5.86956   5.88545   5.89856   5.90562
 Alpha virt. eigenvalues --    5.93560   5.94580   5.98677   6.02087  23.73340
 Alpha virt. eigenvalues --   23.74375  23.79040  23.84115  23.86250  23.94564
 Alpha virt. eigenvalues --   23.98600  24.02688  24.05276  24.06008  24.06942
 Alpha virt. eigenvalues --   24.07186  24.07844  24.08508  24.09438  24.09602
 Alpha virt. eigenvalues --   24.10291  24.10850  24.13447  24.13932  24.15182
 Alpha virt. eigenvalues --   24.16854  24.17515  24.19027  24.19476  24.20567
 Alpha virt. eigenvalues --   24.22538  24.22969  24.23417  24.23601  24.23981
 Alpha virt. eigenvalues --   24.25388  24.29785  24.30120  24.30922  24.31620
 Alpha virt. eigenvalues --   24.32646  24.34495  24.38470  50.07059  50.07843
 Alpha virt. eigenvalues --   50.10379  50.11405  50.12277  50.12617  50.13243
 Alpha virt. eigenvalues --   50.15905  50.22079
          Condensed to atoms (all electrons):
 Mulliken charges:
               1
     1  C   -0.159600
     2  C   -0.689529
     3  C   -0.306901
     4  C   -0.084854
     5  C    0.638033
     6  C   -0.373264
     7  H    0.263256
     8  H    0.245083
     9  H    0.233491
    10  O   -0.260969
    11  H    0.316625
    12  O   -0.205626
    13  H    0.320536
    14  C   -0.107821
    15  H    0.376799
    16  C   -0.031876
    17  H   -0.074813
    18  C   -0.398305
    19  O   -0.295338
    20  C    0.309677
    21  C   -0.178501
    22  C   -0.218847
    23  C   -0.240638
    24  H    0.270408
    25  C    0.649624
    26  C   -0.779449
    27  H    0.231953
    28  O   -0.181382
    29  H    0.329789
    30  O   -0.156448
    31  H    0.403803
    32  C    0.417123
    33  C   -0.678028
    34  C   -0.648660
    35  C   -0.498315
    36  H    0.286412
    37  C   -0.299930
    38  H    0.238837
    39  C    0.653276
    40  O   -0.159680
    41  H    0.327690
    42  O   -0.204769
    43  H    0.327207
    44  C   -0.282836
    45  H    0.256177
    46  C   -0.483263
    47  H    0.266172
    48  C    0.917715
    49  C   -0.748703
    50  H    0.217842
    51  H    0.275371
    52  C   -0.735468
    53  H    0.181498
    54  H    0.232696
    55  H    0.173903
    56  C   -0.528561
    57  H    0.286199
    58  H    0.194721
    59  C   -0.455684
    60  H    0.241489
    61  C    0.442222
    62  C   -0.476957
    63  H    0.185348
    64  H    0.174078
    65  H    0.185321
    66  C   -0.820780
    67  H    0.118997
    68  H    0.184997
    69  H    0.189239
    70  C    0.440538
    71  C    0.377972
    72  C   -0.322869
    73  C   -0.587411
    74  C    0.020078
    75  C   -0.340336
    76  C   -0.240942
    77  C   -0.343523
    78  H    0.269787
    79  H    0.256171
    80  H    0.253235
    81  H    0.262151
    82  O   -0.230620
    83  H    0.313516
    84  O    0.074441
 Sum of Mulliken charges =  -0.00000
 Mulliken charges with hydrogens summed into heavy atoms:
               1
     1  C    0.103657
     2  C   -0.689529
     3  C   -0.061818
     4  C    0.148637
     5  C    0.638033
     6  C   -0.373264
    10  O    0.055656
    12  O    0.114909
    14  C    0.268978
    16  C   -0.106689
    18  C   -0.398305
    19  O   -0.295338
    20  C    0.309677
    21  C    0.091906
    22  C   -0.218847
    23  C   -0.008686
    25  C    0.649624
    26  C   -0.779449
    28  O    0.148406
    30  O    0.247355
    32  C    0.417123
    33  C   -0.391615
    34  C   -0.409823
    35  C   -0.498315
    37  C   -0.299930
    39  C    0.653276
    40  O    0.168011
    42  O    0.122438
    44  C   -0.026659
    46  C   -0.217091
    48  C    0.917715
    49  C   -0.255491
    52  C   -0.147371
    56  C   -0.047641
    59  C   -0.214195
    61  C    0.442222
    62  C    0.067790
    66  C   -0.327547
    70  C    0.440538
    71  C    0.377972
    72  C   -0.053082
    73  C   -0.587411
    74  C    0.276250
    75  C   -0.087101
    76  C    0.021209
    77  C   -0.343523
    82  O    0.082896
    84  O    0.074441
 Electronic spatial extent (au):  <R**2>=          35078.4737
 Charge=             -0.0000 electrons
 Dipole moment (field-independent basis, Debye):
    X=             -1.9975    Y=             -4.3712    Z=              7.7506  Tot=              9.1197
 Quadrupole moment (field-independent basis, Debye-Ang):
   XX=           -193.0450   YY=           -289.9345   ZZ=           -268.3862
   XY=             25.0981   XZ=             14.7383   YZ=             -6.5544
 Traceless Quadrupole moment (field-independent basis, Debye-Ang):
   XX=             57.4102   YY=            -39.4792   ZZ=            -17.9310
   XY=             25.0981   XZ=             14.7383   YZ=             -6.5544
 Octapole moment (field-independent basis, Debye-Ang**2):
  XXX=            133.3934  YYY=             10.6480  ZZZ=             82.1924  XYY=            -68.1306
  XXY=             43.8027  XXZ=            154.7395  XZZ=            -59.3693  YZZ=            -70.6116
  YYZ=             17.3841  XYZ=             21.5912
 Hexadecapole moment (field-independent basis, Debye-Ang**3):
 XXXX=         -30936.8196 YYYY=          -5458.2275 ZZZZ=          -3374.6142 XXXY=            -78.2347
 XXXZ=           1799.8692 YYYX=            235.7178 YYYZ=             -4.8634 ZZZX=           -260.7358
 ZZZY=           -130.3204 XXYY=          -7012.9214 XXZZ=          -6327.8029 YYZZ=          -1525.2649
 XXYZ=           -611.4945 YYXZ=            -76.1250 ZZXY=            212.0221
 N-N= 6.198016678590D+03 E-N=-1.749625173087D+04  KE= 2.175858592222D+03
 1\1\GINC-NODE2\SP\RwB97XD\6-311++G(d,p)\C39H36O9\ZHOUJUNSU\12-Jul-2023
 \0\\# wb97xd/6-311++G(d,p) integral(ultrafinegrid) guess=read geom=che
 ck scrf=(cpcm,read,solvent=water)\\Candidate Structure: MaDA-TS-2, Con
 former: 1, Single-point energies calculated with wB97X-D/6-311++G(d,p)
 \\0,1\C,0,-7.9753028493,0.7338448613,1.0172817621\C,0,-7.7754160646,-0
 .1616881213,2.066927177\C,0,-6.5189224914,-0.7326926828,2.2707139312\C
 ,0,-5.4740839325,-0.3878581505,1.421678206\C,0,-5.6329286854,0.5160448
 935,0.369969785\C,0,-6.9144915808,1.0617539884,0.1776033909\H,0,-8.960
 3018127,1.1663906503,0.8668382541\H,0,-6.3597115413,-1.4421050865,3.07
 76383947\H,0,-4.5078649644,-0.8600424552,1.5741083669\O,0,-8.847976385
 1,-0.4394624552,2.8526558817\H,0,-8.5880654728,-1.0638388162,3.5429148
 302\O,0,-7.0756878155,1.915073676,-0.8689951923\H,0,-7.9932425683,2.21
 52060434,-0.9054280844\C,0,-4.5320835157,0.8575058718,-0.5690054581\H,
 0,-4.7474568116,1.6940708304,-1.2285279455\C,0,-3.1972156325,0.7764229
 483,-0.1353079109\H,0,-2.9624912886,0.2624882523,0.7856483901\C,0,-2.1
 295684486,1.4809319968,-0.785219641\O,0,-2.246273771,1.9119412187,-1.9
 647630325\C,0,-0.8458645982,1.6303801342,-0.0624719457\C,0,-0.75845782
 26,1.5369141299,1.3349251034\C,0,0.3505899147,1.8280852137,-0.78882628
 76\C,0,0.4518760097,1.612266421,1.9889812437\H,0,-1.6642761428,1.42575
 04614,1.9212835308\C,0,1.6022063515,1.8568556166,-0.1526077186\C,0,1.6
 298906121,1.7503752211,1.242316496\H,0,0.517910154,1.5557535403,3.0700
 429544\O,0,0.3236436445,1.9701230615,-2.1268724482\H,0,-0.6375060556,2
 .0164864614,-2.370973036\O,0,2.7832661251,1.7810487456,1.9510913383\H,
 0,3.527169276,1.9879211222,1.3580204654\C,0,1.8178892838,-1.6207210201
 ,-0.1059495449\C,0,1.5196840466,-1.5246368187,-1.4637288773\C,0,0.7885
 143606,-1.741158406,0.8315869598\C,0,0.1907431902,-1.4879522882,-1.867
 5918135\H,0,2.3032452344,-1.4477606781,-2.2079634006\C,0,-0.5359750133
 ,-1.7137771053,0.4131530576\H,0,1.017198178,-1.8385065499,1.8884113883
 \C,0,-0.8693698734,-1.5664550503,-0.9457017896\O,0,-1.5605518579,-1.78
 84195009,1.2992199804\H,0,-1.2075793903,-1.7483477857,2.1980921023\O,0
 ,-0.0335581849,-1.3658929334,-3.201622862\H,0,-0.9586402538,-1.5601444
 13,-3.4022713902\C,0,-2.2374487423,-1.3234607669,-1.4066312525\H,0,-2.
 3094006738,-0.5732138859,-2.1902299331\C,0,-3.3531729136,-2.076471874,
 -1.1366746107\H,0,-3.2589725819,-2.9543694523,-0.5024206011\C,0,-4.645
 7343749,-1.6683871705,-1.5331811598\C,0,-4.8398964106,-0.4017026239,-2
 .0883467276\H,0,-4.0636968118,0.0599077802,-2.6926972398\H,0,-5.849877
 4642,-0.127020334,-2.3852095356\C,0,-5.8362139837,-2.5081207368,-1.154
 6745934\H,0,-6.7072505522,-1.8802619981,-0.9432921756\H,0,-6.105763705
 4,-3.1809587104,-1.978666119\H,0,-5.6335147098,-3.1251910812,-0.274082
 8165\C,0,2.8703696901,1.948398728,-0.9757756765\H,0,2.5861042402,2.197
 6624902,-2.0027756041\H,0,3.3352334635,0.9558984154,-1.0200065003\C,0,
 3.8466571232,2.9813708722,-0.4644409623\H,0,3.3947345386,3.9406647979,
 -0.2077609669\C,0,5.1725539566,2.8539589987,-0.3022060823\C,0,5.996076
 984,3.998644634,0.230383923\H,0,6.7516090903,4.3045582585,-0.504117142
 8\H,0,5.3806064815,4.8690915368,0.4749119085\H,0,6.5399013121,3.694458
 5772,1.1334703163\C,0,5.963673847,1.6166524518,-0.6315022052\H,0,6.455
 8478914,1.2189072774,0.2648656072\H,0,5.3607897077,0.8180059372,-1.065
 3759614\H,0,6.7588364657,1.8625726958,-1.3461630552\C,0,5.1854408592,-
 1.3199593012,1.3597093657\C,0,5.3716316477,-1.7115138452,0.0280181822\
 C,0,6.6104601854,-1.8966533613,-0.5658652835\C,0,7.7184570709,-1.65722
 50822,0.2422184121\C,0,7.5721253149,-1.2561622884,1.5861130135\C,0,6.3
 165021742,-1.0874000875,2.1493356529\C,0,3.7601806074,-1.2390087131,1.
 5390980646\C,0,3.2042412228,-1.5690728044,0.3466549671\H,0,6.723265276
 7,-2.1966094936,-1.6010413277\H,0,8.4607023577,-1.0792258004,2.1860751
 148\H,0,6.2204120573,-0.7775244552,3.1849441551\H,0,3.2277827029,-0.92
 31813106,2.423683588\O,0,8.9431457289,-1.8281396069,-0.3236862583\H,0,
 9.6310848303,-1.6246133039,0.3234461394\O,0,4.1725555397,-1.8578234064
 ,-0.5925222305\\Version=ES64L-G16RevA.03\State=1-A\HF=-2184.6973053\RM
 SD=3.431e-09\Dipole=-0.7793349,-1.7102691,3.0563402\Quadrupole=42.8738
 156,-29.4837952,-13.3900204,18.4550516,10.6870045,-4.9371318\PG=C01 [X
 (C39H36O9)]\\@


 ADAM SMITH SAID, "THE REAL PRICE OF ANYTHING IS THE TOIL AND TROUBLE
 OF ACQUIRING IT."  BUT IN ALL UNDERTAKINGS WITH NATURE WE SHOULD FIRST
 READ CAREFULLY THE SMALL PRINT IN THE CONTRACT. THIS MIGHT DISCLOSE
 THAT THE REAL PRICE IS TO BE PAID BY THOSE WHO INHERIT THE DEPLETION
 AND DESPOILATION THAT FOLLOWS.
                               -- E. R. HARRISON IN "COSMOLOGY" (1980)
 Job cpu time:       1 days  1 hours 14 minutes 16.1 seconds.
 Elapsed time:       0 days  0 hours 32 minutes 21.0 seconds.
 File lengths (MBytes):  RWF=   1118 Int=      0 D2E=      0 Chk=    139 Scr=      2
 Normal termination of Gaussian 16 at Wed Jul 12 19:10:29 2023.
