 Entering Gaussian System, Link 0=g16
 Input=MaDA-TS-2-opt_freq-conf-1.com
 Output=MaDA-TS-2-opt_freq-conf-1.log
 Initial command:
 /public/home/zhoujunsu/g16/l1.exe "/public/home/zhoujunsu/g16/scratch/Gau-89988.inp" -scrdir="/public/home/zhoujunsu/g16/scratch/"
 Entering Link 1 = /public/home/zhoujunsu/g16/l1.exe PID=     89989.
  
 Copyright (c) 1988,1990,1992,1993,1995,1998,2003,2009,2016,
            Gaussian, Inc.  All Rights Reserved.
  
 This is part of the Gaussian(R) 16 program.  It is based on
 the Gaussian(R) 09 system (copyright 2009, Gaussian, Inc.),
 the Gaussian(R) 03 system (copyright 2003, Gaussian, Inc.),
 the Gaussian(R) 98 system (copyright 1998, Gaussian, Inc.),
 the Gaussian(R) 94 system (copyright 1995, Gaussian, Inc.),
 the Gaussian 92(TM) system (copyright 1992, Gaussian, Inc.),
 the Gaussian 90(TM) system (copyright 1990, Gaussian, Inc.),
 the Gaussian 88(TM) system (copyright 1988, Gaussian, Inc.),
 the Gaussian 86(TM) system (copyright 1986, Carnegie Mellon
 University), and the Gaussian 82(TM) system (copyright 1983,
 Carnegie Mellon University). Gaussian is a federally registered
 trademark of Gaussian, Inc.
  
 This software contains proprietary and confidential information,
 including trade secrets, belonging to Gaussian, Inc.
  
 This software is provided under written license and may be
 used, copied, transmitted, or stored only in accord with that
 written license.
  
 The following legend is applicable only to US Government
 contracts under FAR:
  
                    RESTRICTED RIGHTS LEGEND
  
 Use, reproduction and disclosure by the US Government is
 subject to restrictions as set forth in subparagraphs (a)
 and (c) of the Commercial Computer Software - Restricted
 Rights clause in FAR 52.227-19.
  
 Gaussian, Inc.
 340 Quinnipiac St., Bldg. 40, Wallingford CT 06492
  
  
 ---------------------------------------------------------------
 Warning -- This program may not be used in any manner that
 competes with the business of Gaussian, Inc. or will provide
 assistance to any competitor of Gaussian, Inc.  The licensee
 of this program is prohibited from giving any competitor of
 Gaussian, Inc. access to this program.  By using this program,
 the user acknowledges that Gaussian, Inc. is engaged in the
 business of creating and licensing software in the field of
 computational chemistry and represents and warrants to the
 licensee that it is not a competitor of Gaussian, Inc. and that
 it will not use this program in any manner prohibited above.
 ---------------------------------------------------------------
  

 Cite this work as:
 Gaussian 16, Revision A.03,
 M. J. Frisch, G. W. Trucks, H. B. Schlegel, G. E. Scuseria, 
 M. A. Robb, J. R. Cheeseman, G. Scalmani, V. Barone, 
 G. A. Petersson, H. Nakatsuji, X. Li, M. Caricato, A. V. Marenich, 
 J. Bloino, B. G. Janesko, R. Gomperts, B. Mennucci, H. P. Hratchian, 
 J. V. Ortiz, A. F. Izmaylov, J. L. Sonnenberg, D. Williams-Young, 
 F. Ding, F. Lipparini, F. Egidi, J. Goings, B. Peng, A. Petrone, 
 T. Henderson, D. Ranasinghe, V. G. Zakrzewski, J. Gao, N. Rega, 
 G. Zheng, W. Liang, M. Hada, M. Ehara, K. Toyota, R. Fukuda, 
 J. Hasegawa, M. Ishida, T. Nakajima, Y. Honda, O. Kitao, H. Nakai, 
 T. Vreven, K. Throssell, J. A. Montgomery, Jr., J. E. Peralta, 
 F. Ogliaro, M. J. Bearpark, J. J. Heyd, E. N. Brothers, K. N. Kudin, 
 V. N. Staroverov, T. A. Keith, R. Kobayashi, J. Normand, 
 K. Raghavachari, A. P. Rendell, J. C. Burant, S. S. Iyengar, 
 J. Tomasi, M. Cossi, J. M. Millam, M. Klene, C. Adamo, R. Cammi, 
 J. W. Ochterski, R. L. Martin, K. Morokuma, O. Farkas, 
 J. B. Foresman, and D. J. Fox, Gaussian, Inc., Wallingford CT, 2016.
 
 ******************************************
 Gaussian 16:  ES64L-G16RevA.03 25-Dec-2016
                12-Jul-2023 
 ******************************************
 %mem=54gb
 %nproc=54
 Will use up to   54 processors via shared memory.
 %chk=MaDA-TS-2-conf-1.chk
 ----------------------------------------------------------------------
 # wb97xd/6-31G(d) opt(calcfc,noeigen,TS) freq=noraman integral(ultrafi
 negrid) scrf=(cpcm,read,solvent=water)
 ----------------------------------------------------------------------
 1/5=1,10=4,11=1,18=20,26=6,38=1,40=2/1,3;
 2/9=110,12=2,17=6,18=5,40=1/2;
 3/5=1,6=6,7=1,11=2,25=1,30=1,70=2103,71=2,72=1,74=-58,75=-5,140=1/1,2,3;
 4//1;
 5/5=2,38=5,53=1/2;
 8/6=4,10=90,11=11/1;
 11/6=1,8=1,9=11,15=111,16=1/1,2,10;
 10/6=1,13=1/2;
 6/7=2,8=2,9=2,10=2,28=1/1;
 7/10=1,18=20,25=1/1,2,3,16;
 1/5=1,10=4,11=1,18=20,26=6/3(2);
 2/9=110/2;
 99//99;
 2/9=110/2;
 3/5=1,6=6,7=1,11=2,25=1,30=1,70=2105,71=1,72=1,74=-58,75=-5/1,2,3;
 4/5=5,16=3,69=1/1;
 5/5=2,38=5,53=1/2;
 7//1,2,3,16;
 1/5=1,11=1,18=20,26=6/3(-5);
 2/9=110/2;
 6/7=2,8=2,9=2,10=2,19=2,28=1/1;
 99/9=1/99;
 ----------------------------------------------------------------------
 Candidate Structure: MaDA-TS-2, Conformer: 1, geometry optimization an
 d frequency calculation with water solvation
 ----------------------------------------------------------------------
 Symbolic Z-matrix:
 Charge =  0 Multiplicity = 1
 C                    -7.95249   0.65609   1.01159 
 C                    -7.73362  -0.25183   2.0454 
 C                    -6.46757  -0.80262   2.23207 
 C                    -5.43104  -0.42682   1.38474 
 C                    -5.60997   0.4906    0.34962 
 C                    -6.90168   1.01569   0.17451 
 H                    -8.94848   1.06893   0.87614 
 H                    -6.29105  -1.5227    3.02725 
 H                    -4.45608  -0.88621   1.52052 
 O                    -8.79932  -0.56253   2.8296 
 H                    -8.52027  -1.19412   3.5031 
 O                    -7.08566   1.87664  -0.8638 
 H                    -7.99909   2.18609  -0.86289 
 C                    -4.52306   0.85818  -0.59424 
 H                    -4.74988   1.69098  -1.25444 
 C                    -3.18773   0.77266  -0.17536 
 H                    -2.95045   0.28953   0.761 
 C                    -2.11855   1.49225  -0.83324 
 O                    -2.22599   1.8563   -2.02743 
 C                    -0.85619   1.68487  -0.09181 
 C                    -0.79581   1.64261   1.30968 
 C                     0.35349   1.8473   -0.80517 
 C                     0.40313   1.72005   1.98224 
 H                    -1.71796   1.57559   1.87829 
 C                     1.59433   1.87946  -0.14543 
 C                     1.59681   1.81249   1.25043 
 H                     0.45553   1.71666   3.06557 
 O                     0.35886   1.93965  -2.14151 
 H                    -0.58902   1.99119  -2.42166 
 O                     2.73726   1.83552   1.97961 
 H                     3.49433   2.00393   1.39207 
 C                     1.80443  -1.57965  -0.07067 
 C                     1.4991   -1.53462  -1.42723 
 C                     0.77848  -1.6456    0.87655 
 C                     0.16714  -1.50113  -1.82439 
 H                     2.27657  -1.49783  -2.18016 
 C                    -0.54607  -1.61624   0.46486 
 H                     1.01724  -1.70428   1.9346 
 C                    -0.88764  -1.52388  -0.89338 
 O                    -1.56574  -1.63918   1.36983 
 H                    -1.19095  -1.50148   2.24836 
 O                    -0.06687  -1.44141  -3.15745 
 H                    -1.00849  -1.57181  -3.32587 
 C                    -2.25765  -1.28531  -1.36415 
 H                    -2.32084  -0.54313  -2.1565 
 C                    -3.36413  -2.06907  -1.13306 
 H                    -3.26541  -2.94699  -0.49855 
 C                    -4.65117  -1.68175  -1.55906 
 C                    -4.84504  -0.41986  -2.12328 
 H                    -4.06913   0.05141  -2.7202 
 H                    -5.85455  -0.14198  -2.41968 
 C                    -5.84411  -2.52795  -1.19662 
 H                    -5.62911  -3.19243  -0.35403 
 H                    -6.70002  -1.90199  -0.92403 
 H                    -6.14822  -3.15254  -2.04619 
 C                     2.87149   1.93793  -0.95665 
 H                     2.5989    2.18938  -1.98629 
 H                     3.31452   0.93533  -0.99572 
 C                     3.86622   2.9506   -0.44332 
 H                     3.42905   3.91156  -0.16778 
 C                     5.19318   2.80836  -0.30948 
 C                     6.03888   3.93928   0.21859 
 H                     6.77604   4.25394  -0.53113 
 H                     5.43622   4.81007   0.49221 
 H                     6.60564   3.62071   1.10288 
 C                     5.9666    1.5723   -0.68229 
 H                     6.51159   1.17311   0.18219 
 H                     5.34075   0.77367  -1.08205 
 H                     6.71762   1.81838  -1.44359 
 C                     5.17683  -1.25194   1.37541 
 C                     5.354    -1.73309   0.07106 
 C                     6.58764  -1.98004  -0.50872 
 C                     7.70026  -1.71494   0.28272 
 C                     7.56329  -1.22537   1.59649 
 C                     6.31198  -0.99384   2.14813 
 C                     3.7539   -1.12809   1.54568 
 C                     3.19271  -1.52552   0.37618 
 H                     6.69586  -2.3503   -1.52082 
 H                     8.45627  -1.02972   2.18609 
 H                     6.223    -0.61576   3.16172 
 H                     3.22734  -0.72783   2.39899 
 O                     8.92179  -1.94812  -0.27016 
 H                     9.60726  -1.73448   0.37345 
 O                     4.15351  -1.89363  -0.53908 
 
 Add virtual bond connecting atoms C49        and C14        Dist= 3.81D+00.

 GradGradGradGradGradGradGradGradGradGradGradGradGradGradGradGradGradGrad
 Berny optimization.
 Initialization pass.
                           ----------------------------
                           !    Initial Parameters    !
                           ! (Angstroms and Degrees)  !
 --------------------------                            --------------------------
 ! Name  Definition              Value          Derivative Info.                !
 --------------------------------------------------------------------------------
 ! R1    R(1,2)                  1.3932         calculate D2E/DX2 analytically  !
 ! R2    R(1,6)                  1.3908         calculate D2E/DX2 analytically  !
 ! R3    R(1,7)                  1.0866         calculate D2E/DX2 analytically  !
 ! R4    R(2,3)                  1.3932         calculate D2E/DX2 analytically  !
 ! R5    R(2,10)                 1.3591         calculate D2E/DX2 analytically  !
 ! R6    R(3,4)                  1.3905         calculate D2E/DX2 analytically  !
 ! R7    R(3,8)                  1.0872         calculate D2E/DX2 analytically  !
 ! R8    R(4,5)                  1.3947         calculate D2E/DX2 analytically  !
 ! R9    R(4,9)                  1.0863         calculate D2E/DX2 analytically  !
 ! R10   R(5,6)                  1.4053         calculate D2E/DX2 analytically  !
 ! R11   R(5,14)                 1.4857         calculate D2E/DX2 analytically  !
 ! R12   R(6,12)                 1.3613         calculate D2E/DX2 analytically  !
 ! R13   R(10,11)                0.9646         calculate D2E/DX2 analytically  !
 ! R14   R(12,13)                0.9644         calculate D2E/DX2 analytically  !
 ! R15   R(14,15)                1.0867         calculate D2E/DX2 analytically  !
 ! R16   R(14,16)                1.4021         calculate D2E/DX2 analytically  !
 ! R17   R(14,49)                2.0187         calculate D2E/DX2 analytically  !
 ! R18   R(16,17)                1.08           calculate D2E/DX2 analytically  !
 ! R19   R(16,18)                1.447          calculate D2E/DX2 analytically  !
 ! R20   R(18,19)                1.2531         calculate D2E/DX2 analytically  !
 ! R21   R(18,20)                1.4766         calculate D2E/DX2 analytically  !
 ! R22   R(20,21)                1.4034         calculate D2E/DX2 analytically  !
 ! R23   R(20,22)                1.4137         calculate D2E/DX2 analytically  !
 ! R24   R(21,23)                1.3769         calculate D2E/DX2 analytically  !
 ! R25   R(21,24)                1.0854         calculate D2E/DX2 analytically  !
 ! R26   R(22,25)                1.4057         calculate D2E/DX2 analytically  !
 ! R27   R(22,28)                1.3395         calculate D2E/DX2 analytically  !
 ! R28   R(23,26)                1.4032         calculate D2E/DX2 analytically  !
 ! R29   R(23,27)                1.0846         calculate D2E/DX2 analytically  !
 ! R30   R(25,26)                1.3975         calculate D2E/DX2 analytically  !
 ! R31   R(25,56)                1.5142         calculate D2E/DX2 analytically  !
 ! R32   R(26,30)                1.3538         calculate D2E/DX2 analytically  !
 ! R33   R(28,29)                0.9898         calculate D2E/DX2 analytically  !
 ! R34   R(30,31)                0.973          calculate D2E/DX2 analytically  !
 ! R35   R(32,33)                1.3912         calculate D2E/DX2 analytically  !
 ! R36   R(32,34)                1.3979         calculate D2E/DX2 analytically  !
 ! R37   R(32,77)                1.4594         calculate D2E/DX2 analytically  !
 ! R38   R(33,35)                1.3903         calculate D2E/DX2 analytically  !
 ! R39   R(33,36)                1.0829         calculate D2E/DX2 analytically  !
 ! R40   R(34,37)                1.3874         calculate D2E/DX2 analytically  !
 ! R41   R(34,38)                1.0862         calculate D2E/DX2 analytically  !
 ! R42   R(35,39)                1.4071         calculate D2E/DX2 analytically  !
 ! R43   R(35,42)                1.3548         calculate D2E/DX2 analytically  !
 ! R44   R(37,39)                1.4036         calculate D2E/DX2 analytically  !
 ! R45   R(37,40)                1.3635         calculate D2E/DX2 analytically  !
 ! R46   R(39,44)                1.4682         calculate D2E/DX2 analytically  !
 ! R47   R(40,41)                0.965          calculate D2E/DX2 analytically  !
 ! R48   R(42,43)                0.9654         calculate D2E/DX2 analytically  !
 ! R49   R(44,45)                1.0875         calculate D2E/DX2 analytically  !
 ! R50   R(44,46)                1.3755         calculate D2E/DX2 analytically  !
 ! R51   R(46,47)                1.0877         calculate D2E/DX2 analytically  !
 ! R52   R(46,48)                1.41           calculate D2E/DX2 analytically  !
 ! R53   R(48,49)                1.3958         calculate D2E/DX2 analytically  !
 ! R54   R(48,52)                1.5068         calculate D2E/DX2 analytically  !
 ! R55   R(49,50)                1.0865         calculate D2E/DX2 analytically  !
 ! R56   R(49,51)                1.0882         calculate D2E/DX2 analytically  !
 ! R57   R(52,53)                1.0944         calculate D2E/DX2 analytically  !
 ! R58   R(52,54)                1.0949         calculate D2E/DX2 analytically  !
 ! R59   R(52,55)                1.0974         calculate D2E/DX2 analytically  !
 ! R60   R(56,57)                1.0944         calculate D2E/DX2 analytically  !
 ! R61   R(56,58)                1.0968         calculate D2E/DX2 analytically  !
 ! R62   R(56,59)                1.5095         calculate D2E/DX2 analytically  !
 ! R63   R(59,60)                1.0911         calculate D2E/DX2 analytically  !
 ! R64   R(59,61)                1.3413         calculate D2E/DX2 analytically  !
 ! R65   R(61,62)                1.5077         calculate D2E/DX2 analytically  !
 ! R66   R(61,66)                1.505          calculate D2E/DX2 analytically  !
 ! R67   R(62,63)                1.0975         calculate D2E/DX2 analytically  !
 ! R68   R(62,64)                1.0938         calculate D2E/DX2 analytically  !
 ! R69   R(62,65)                1.0976         calculate D2E/DX2 analytically  !
 ! R70   R(66,67)                1.0971         calculate D2E/DX2 analytically  !
 ! R71   R(66,68)                1.0906         calculate D2E/DX2 analytically  !
 ! R72   R(66,69)                1.0973         calculate D2E/DX2 analytically  !
 ! R73   R(70,71)                1.4015         calculate D2E/DX2 analytically  !
 ! R74   R(70,75)                1.3972         calculate D2E/DX2 analytically  !
 ! R75   R(70,76)                1.4384         calculate D2E/DX2 analytically  !
 ! R76   R(71,72)                1.3853         calculate D2E/DX2 analytically  !
 ! R77   R(71,84)                1.3562         calculate D2E/DX2 analytically  !
 ! R78   R(72,73)                1.3909         calculate D2E/DX2 analytically  !
 ! R79   R(72,78)                1.0831         calculate D2E/DX2 analytically  !
 ! R80   R(73,74)                1.4087         calculate D2E/DX2 analytically  !
 ! R81   R(73,82)                1.3609         calculate D2E/DX2 analytically  !
 ! R82   R(74,75)                1.387          calculate D2E/DX2 analytically  !
 ! R83   R(74,79)                1.0878         calculate D2E/DX2 analytically  !
 ! R84   R(75,80)                1.0855         calculate D2E/DX2 analytically  !
 ! R85   R(76,77)                1.3567         calculate D2E/DX2 analytically  !
 ! R86   R(76,81)                1.0796         calculate D2E/DX2 analytically  !
 ! R87   R(77,84)                1.3771         calculate D2E/DX2 analytically  !
 ! R88   R(82,83)                0.9642         calculate D2E/DX2 analytically  !
 ! A1    A(2,1,6)              119.764          calculate D2E/DX2 analytically  !
 ! A2    A(2,1,7)              118.9523         calculate D2E/DX2 analytically  !
 ! A3    A(6,1,7)              121.2836         calculate D2E/DX2 analytically  !
 ! A4    A(1,2,3)              119.9878         calculate D2E/DX2 analytically  !
 ! A5    A(1,2,10)             116.9969         calculate D2E/DX2 analytically  !
 ! A6    A(3,2,10)             123.0142         calculate D2E/DX2 analytically  !
 ! A7    A(2,3,4)              119.2673         calculate D2E/DX2 analytically  !
 ! A8    A(2,3,8)              120.4897         calculate D2E/DX2 analytically  !
 ! A9    A(4,3,8)              120.2421         calculate D2E/DX2 analytically  !
 ! A10   A(3,4,5)              122.303          calculate D2E/DX2 analytically  !
 ! A11   A(3,4,9)              118.5918         calculate D2E/DX2 analytically  !
 ! A12   A(5,4,9)              119.0844         calculate D2E/DX2 analytically  !
 ! A13   A(4,5,6)              117.1415         calculate D2E/DX2 analytically  !
 ! A14   A(4,5,14)             122.7106         calculate D2E/DX2 analytically  !
 ! A15   A(6,5,14)             120.0546         calculate D2E/DX2 analytically  !
 ! A16   A(1,6,5)              121.5253         calculate D2E/DX2 analytically  !
 ! A17   A(1,6,12)             121.3654         calculate D2E/DX2 analytically  !
 ! A18   A(5,6,12)             117.1016         calculate D2E/DX2 analytically  !
 ! A19   A(2,10,11)            109.0093         calculate D2E/DX2 analytically  !
 ! A20   A(6,12,13)            109.281          calculate D2E/DX2 analytically  !
 ! A21   A(5,14,15)            115.0166         calculate D2E/DX2 analytically  !
 ! A22   A(5,14,16)            119.4621         calculate D2E/DX2 analytically  !
 ! A23   A(5,14,49)            101.9982         calculate D2E/DX2 analytically  !
 ! A24   A(15,14,16)           115.2791         calculate D2E/DX2 analytically  !
 ! A25   A(15,14,49)            89.5263         calculate D2E/DX2 analytically  !
 ! A26   A(16,14,49)           109.851          calculate D2E/DX2 analytically  !
 ! A27   A(14,16,17)           119.7046         calculate D2E/DX2 analytically  !
 ! A28   A(14,16,18)           122.5173         calculate D2E/DX2 analytically  !
 ! A29   A(17,16,18)           117.0194         calculate D2E/DX2 analytically  !
 ! A30   A(16,18,19)           120.9588         calculate D2E/DX2 analytically  !
 ! A31   A(16,18,20)           117.9222         calculate D2E/DX2 analytically  !
 ! A32   A(19,18,20)           120.9258         calculate D2E/DX2 analytically  !
 ! A33   A(18,20,21)           122.2949         calculate D2E/DX2 analytically  !
 ! A34   A(18,20,22)           119.5473         calculate D2E/DX2 analytically  !
 ! A35   A(21,20,22)           118.0699         calculate D2E/DX2 analytically  !
 ! A36   A(20,21,23)           121.5716         calculate D2E/DX2 analytically  !
 ! A37   A(20,21,24)           119.2383         calculate D2E/DX2 analytically  !
 ! A38   A(23,21,24)           119.1671         calculate D2E/DX2 analytically  !
 ! A39   A(20,22,25)           121.4075         calculate D2E/DX2 analytically  !
 ! A40   A(20,22,28)           120.9805         calculate D2E/DX2 analytically  !
 ! A41   A(25,22,28)           117.5876         calculate D2E/DX2 analytically  !
 ! A42   A(21,23,26)           119.3212         calculate D2E/DX2 analytically  !
 ! A43   A(21,23,27)           121.991          calculate D2E/DX2 analytically  !
 ! A44   A(26,23,27)           118.6872         calculate D2E/DX2 analytically  !
 ! A45   A(22,25,26)           117.9872         calculate D2E/DX2 analytically  !
 ! A46   A(22,25,56)           119.6031         calculate D2E/DX2 analytically  !
 ! A47   A(26,25,56)           122.3776         calculate D2E/DX2 analytically  !
 ! A48   A(23,26,25)           121.5051         calculate D2E/DX2 analytically  !
 ! A49   A(23,26,30)           115.9014         calculate D2E/DX2 analytically  !
 ! A50   A(25,26,30)           122.5933         calculate D2E/DX2 analytically  !
 ! A51   A(22,28,29)           106.3867         calculate D2E/DX2 analytically  !
 ! A52   A(26,30,31)           109.4601         calculate D2E/DX2 analytically  !
 ! A53   A(33,32,34)           120.0771         calculate D2E/DX2 analytically  !
 ! A54   A(33,32,77)           120.4061         calculate D2E/DX2 analytically  !
 ! A55   A(34,32,77)           119.4999         calculate D2E/DX2 analytically  !
 ! A56   A(32,33,35)           119.3134         calculate D2E/DX2 analytically  !
 ! A57   A(32,33,36)           121.4321         calculate D2E/DX2 analytically  !
 ! A58   A(35,33,36)           119.2332         calculate D2E/DX2 analytically  !
 ! A59   A(32,34,37)           119.9089         calculate D2E/DX2 analytically  !
 ! A60   A(32,34,38)           120.0825         calculate D2E/DX2 analytically  !
 ! A61   A(37,34,38)           120.0019         calculate D2E/DX2 analytically  !
 ! A62   A(33,35,39)           121.9212         calculate D2E/DX2 analytically  !
 ! A63   A(33,35,42)           116.5917         calculate D2E/DX2 analytically  !
 ! A64   A(39,35,42)           121.4868         calculate D2E/DX2 analytically  !
 ! A65   A(34,37,39)           121.3917         calculate D2E/DX2 analytically  !
 ! A66   A(34,37,40)           121.1083         calculate D2E/DX2 analytically  !
 ! A67   A(39,37,40)           117.4762         calculate D2E/DX2 analytically  !
 ! A68   A(35,39,37)           117.3186         calculate D2E/DX2 analytically  !
 ! A69   A(35,39,44)           118.9941         calculate D2E/DX2 analytically  !
 ! A70   A(37,39,44)           123.2352         calculate D2E/DX2 analytically  !
 ! A71   A(37,40,41)           108.1427         calculate D2E/DX2 analytically  !
 ! A72   A(35,42,43)           109.5219         calculate D2E/DX2 analytically  !
 ! A73   A(39,44,45)           113.4995         calculate D2E/DX2 analytically  !
 ! A74   A(39,44,46)           127.1707         calculate D2E/DX2 analytically  !
 ! A75   A(45,44,46)           117.6807         calculate D2E/DX2 analytically  !
 ! A76   A(44,46,47)           119.0061         calculate D2E/DX2 analytically  !
 ! A77   A(44,46,48)           121.8037         calculate D2E/DX2 analytically  !
 ! A78   A(47,46,48)           118.7392         calculate D2E/DX2 analytically  !
 ! A79   A(46,48,49)           119.8193         calculate D2E/DX2 analytically  !
 ! A80   A(46,48,52)           119.7183         calculate D2E/DX2 analytically  !
 ! A81   A(49,48,52)           119.6673         calculate D2E/DX2 analytically  !
 ! A82   A(14,49,48)           104.1247         calculate D2E/DX2 analytically  !
 ! A83   A(14,49,50)            91.5831         calculate D2E/DX2 analytically  !
 ! A84   A(14,49,51)           101.105          calculate D2E/DX2 analytically  !
 ! A85   A(48,49,50)           120.9999         calculate D2E/DX2 analytically  !
 ! A86   A(48,49,51)           118.0217         calculate D2E/DX2 analytically  !
 ! A87   A(50,49,51)           113.7091         calculate D2E/DX2 analytically  !
 ! A88   A(48,52,53)           111.7538         calculate D2E/DX2 analytically  !
 ! A89   A(48,52,54)           110.9603         calculate D2E/DX2 analytically  !
 ! A90   A(48,52,55)           110.6584         calculate D2E/DX2 analytically  !
 ! A91   A(53,52,54)           108.0002         calculate D2E/DX2 analytically  !
 ! A92   A(53,52,55)           107.7524         calculate D2E/DX2 analytically  !
 ! A93   A(54,52,55)           107.5481         calculate D2E/DX2 analytically  !
 ! A94   A(25,56,57)           107.6285         calculate D2E/DX2 analytically  !
 ! A95   A(25,56,58)           108.9345         calculate D2E/DX2 analytically  !
 ! A96   A(25,56,59)           113.5506         calculate D2E/DX2 analytically  !
 ! A97   A(57,56,58)           106.089          calculate D2E/DX2 analytically  !
 ! A98   A(57,56,59)           109.2656         calculate D2E/DX2 analytically  !
 ! A99   A(58,56,59)           111.0496         calculate D2E/DX2 analytically  !
 ! A100  A(56,59,60)           114.375          calculate D2E/DX2 analytically  !
 ! A101  A(56,59,61)           127.9346         calculate D2E/DX2 analytically  !
 ! A102  A(60,59,61)           117.684          calculate D2E/DX2 analytically  !
 ! A103  A(59,61,62)           120.6877         calculate D2E/DX2 analytically  !
 ! A104  A(59,61,66)           124.8059         calculate D2E/DX2 analytically  !
 ! A105  A(62,61,66)           114.4927         calculate D2E/DX2 analytically  !
 ! A106  A(61,62,63)           110.6444         calculate D2E/DX2 analytically  !
 ! A107  A(61,62,64)           112.0702         calculate D2E/DX2 analytically  !
 ! A108  A(61,62,65)           110.7396         calculate D2E/DX2 analytically  !
 ! A109  A(63,62,64)           108.2235         calculate D2E/DX2 analytically  !
 ! A110  A(63,62,65)           106.6633         calculate D2E/DX2 analytically  !
 ! A111  A(64,62,65)           108.3031         calculate D2E/DX2 analytically  !
 ! A112  A(61,66,67)           111.034          calculate D2E/DX2 analytically  !
 ! A113  A(61,66,68)           113.4122         calculate D2E/DX2 analytically  !
 ! A114  A(61,66,69)           109.8394         calculate D2E/DX2 analytically  !
 ! A115  A(67,66,68)           107.9059         calculate D2E/DX2 analytically  !
 ! A116  A(67,66,69)           106.7547         calculate D2E/DX2 analytically  !
 ! A117  A(68,66,69)           107.6186         calculate D2E/DX2 analytically  !
 ! A118  A(71,70,75)           118.3866         calculate D2E/DX2 analytically  !
 ! A119  A(71,70,76)           105.3539         calculate D2E/DX2 analytically  !
 ! A120  A(75,70,76)           136.2445         calculate D2E/DX2 analytically  !
 ! A121  A(70,71,72)           124.2834         calculate D2E/DX2 analytically  !
 ! A122  A(70,71,84)           110.3314         calculate D2E/DX2 analytically  !
 ! A123  A(72,71,84)           125.3737         calculate D2E/DX2 analytically  !
 ! A124  A(71,72,73)           116.1198         calculate D2E/DX2 analytically  !
 ! A125  A(71,72,78)           122.7516         calculate D2E/DX2 analytically  !
 ! A126  A(73,72,78)           121.1269         calculate D2E/DX2 analytically  !
 ! A127  A(72,73,74)           121.2738         calculate D2E/DX2 analytically  !
 ! A128  A(72,73,82)           117.012          calculate D2E/DX2 analytically  !
 ! A129  A(74,73,82)           121.7142         calculate D2E/DX2 analytically  !
 ! A130  A(73,74,75)           121.1087         calculate D2E/DX2 analytically  !
 ! A131  A(73,74,79)           119.2209         calculate D2E/DX2 analytically  !
 ! A132  A(75,74,79)           119.6701         calculate D2E/DX2 analytically  !
 ! A133  A(70,75,74)           118.8265         calculate D2E/DX2 analytically  !
 ! A134  A(70,75,80)           120.9417         calculate D2E/DX2 analytically  !
 ! A135  A(74,75,80)           120.2315         calculate D2E/DX2 analytically  !
 ! A136  A(70,76,77)           106.3751         calculate D2E/DX2 analytically  !
 ! A137  A(70,76,81)           127.4415         calculate D2E/DX2 analytically  !
 ! A138  A(77,76,81)           126.0276         calculate D2E/DX2 analytically  !
 ! A139  A(32,77,76)           131.9346         calculate D2E/DX2 analytically  !
 ! A140  A(32,77,84)           116.7617         calculate D2E/DX2 analytically  !
 ! A141  A(76,77,84)           111.2622         calculate D2E/DX2 analytically  !
 ! A142  A(73,82,83)           109.2048         calculate D2E/DX2 analytically  !
 ! A143  A(71,84,77)           106.6754         calculate D2E/DX2 analytically  !
 ! D1    D(6,1,2,3)             -0.4224         calculate D2E/DX2 analytically  !
 ! D2    D(6,1,2,10)           179.9529         calculate D2E/DX2 analytically  !
 ! D3    D(7,1,2,3)            179.4899         calculate D2E/DX2 analytically  !
 ! D4    D(7,1,2,10)            -0.1348         calculate D2E/DX2 analytically  !
 ! D5    D(2,1,6,5)             -0.4465         calculate D2E/DX2 analytically  !
 ! D6    D(2,1,6,12)           178.5135         calculate D2E/DX2 analytically  !
 ! D7    D(7,1,6,5)            179.6433         calculate D2E/DX2 analytically  !
 ! D8    D(7,1,6,12)            -1.3967         calculate D2E/DX2 analytically  !
 ! D9    D(1,2,3,4)              0.5411         calculate D2E/DX2 analytically  !
 ! D10   D(1,2,3,8)           -179.1163         calculate D2E/DX2 analytically  !
 ! D11   D(10,2,3,4)          -179.8577         calculate D2E/DX2 analytically  !
 ! D12   D(10,2,3,8)             0.4849         calculate D2E/DX2 analytically  !
 ! D13   D(1,2,10,11)         -179.9162         calculate D2E/DX2 analytically  !
 ! D14   D(3,2,10,11)            0.4714         calculate D2E/DX2 analytically  !
 ! D15   D(2,3,4,5)              0.2083         calculate D2E/DX2 analytically  !
 ! D16   D(2,3,4,9)           -178.1175         calculate D2E/DX2 analytically  !
 ! D17   D(8,3,4,5)            179.8666         calculate D2E/DX2 analytically  !
 ! D18   D(8,3,4,9)              1.5407         calculate D2E/DX2 analytically  !
 ! D19   D(3,4,5,6)             -1.0321         calculate D2E/DX2 analytically  !
 ! D20   D(3,4,5,14)          -177.5164         calculate D2E/DX2 analytically  !
 ! D21   D(9,4,5,6)            177.2858         calculate D2E/DX2 analytically  !
 ! D22   D(9,4,5,14)             0.8015         calculate D2E/DX2 analytically  !
 ! D23   D(4,5,6,1)              1.1483         calculate D2E/DX2 analytically  !
 ! D24   D(4,5,6,12)          -177.8542         calculate D2E/DX2 analytically  !
 ! D25   D(14,5,6,1)           177.7308         calculate D2E/DX2 analytically  !
 ! D26   D(14,5,6,12)           -1.2718         calculate D2E/DX2 analytically  !
 ! D27   D(4,5,14,15)         -171.0943         calculate D2E/DX2 analytically  !
 ! D28   D(4,5,14,16)          -27.4993         calculate D2E/DX2 analytically  !
 ! D29   D(4,5,14,49)           93.7508         calculate D2E/DX2 analytically  !
 ! D30   D(6,5,14,15)           12.5204         calculate D2E/DX2 analytically  !
 ! D31   D(6,5,14,16)          156.1154         calculate D2E/DX2 analytically  !
 ! D32   D(6,5,14,49)          -82.6345         calculate D2E/DX2 analytically  !
 ! D33   D(1,6,12,13)            2.6844         calculate D2E/DX2 analytically  !
 ! D34   D(5,6,12,13)         -178.3114         calculate D2E/DX2 analytically  !
 ! D35   D(5,14,16,17)          10.1422         calculate D2E/DX2 analytically  !
 ! D36   D(5,14,16,18)        -159.5785         calculate D2E/DX2 analytically  !
 ! D37   D(15,14,16,17)        153.6462         calculate D2E/DX2 analytically  !
 ! D38   D(15,14,16,18)        -16.0745         calculate D2E/DX2 analytically  !
 ! D39   D(49,14,16,17)       -107.1019         calculate D2E/DX2 analytically  !
 ! D40   D(49,14,16,18)         83.1774         calculate D2E/DX2 analytically  !
 ! D41   D(5,14,49,48)         -63.0716         calculate D2E/DX2 analytically  !
 ! D42   D(5,14,49,50)         174.3638         calculate D2E/DX2 analytically  !
 ! D43   D(5,14,49,51)          59.8227         calculate D2E/DX2 analytically  !
 ! D44   D(15,14,49,48)       -178.5761         calculate D2E/DX2 analytically  !
 ! D45   D(15,14,49,50)         58.8593         calculate D2E/DX2 analytically  !
 ! D46   D(15,14,49,51)        -55.6818         calculate D2E/DX2 analytically  !
 ! D47   D(16,14,49,48)         64.6138         calculate D2E/DX2 analytically  !
 ! D48   D(16,14,49,50)        -57.9508         calculate D2E/DX2 analytically  !
 ! D49   D(16,14,49,51)       -172.492          calculate D2E/DX2 analytically  !
 ! D50   D(14,16,18,19)        -23.9923         calculate D2E/DX2 analytically  !
 ! D51   D(14,16,18,20)        161.0122         calculate D2E/DX2 analytically  !
 ! D52   D(17,16,18,19)        166.0275         calculate D2E/DX2 analytically  !
 ! D53   D(17,16,18,20)         -8.968          calculate D2E/DX2 analytically  !
 ! D54   D(16,18,20,21)        -23.0246         calculate D2E/DX2 analytically  !
 ! D55   D(16,18,20,22)        153.497          calculate D2E/DX2 analytically  !
 ! D56   D(19,18,20,21)        161.9781         calculate D2E/DX2 analytically  !
 ! D57   D(19,18,20,22)        -21.5003         calculate D2E/DX2 analytically  !
 ! D58   D(18,20,21,23)        174.8632         calculate D2E/DX2 analytically  !
 ! D59   D(18,20,21,24)         -6.896          calculate D2E/DX2 analytically  !
 ! D60   D(22,20,21,23)         -1.7074         calculate D2E/DX2 analytically  !
 ! D61   D(22,20,21,24)        176.5333         calculate D2E/DX2 analytically  !
 ! D62   D(18,20,22,25)       -172.6006         calculate D2E/DX2 analytically  !
 ! D63   D(18,20,22,28)          5.5572         calculate D2E/DX2 analytically  !
 ! D64   D(21,20,22,25)          4.0672         calculate D2E/DX2 analytically  !
 ! D65   D(21,20,22,28)       -177.7749         calculate D2E/DX2 analytically  !
 ! D66   D(20,21,23,26)         -1.4907         calculate D2E/DX2 analytically  !
 ! D67   D(20,21,23,27)        178.2133         calculate D2E/DX2 analytically  !
 ! D68   D(24,21,23,26)       -179.7327         calculate D2E/DX2 analytically  !
 ! D69   D(24,21,23,27)         -0.0287         calculate D2E/DX2 analytically  !
 ! D70   D(20,22,25,26)         -3.1224         calculate D2E/DX2 analytically  !
 ! D71   D(20,22,25,56)        174.8692         calculate D2E/DX2 analytically  !
 ! D72   D(28,22,25,26)        178.6596         calculate D2E/DX2 analytically  !
 ! D73   D(28,22,25,56)         -3.3489         calculate D2E/DX2 analytically  !
 ! D74   D(20,22,28,29)          7.2806         calculate D2E/DX2 analytically  !
 ! D75   D(25,22,28,29)       -174.4933         calculate D2E/DX2 analytically  !
 ! D76   D(21,23,26,25)          2.4881         calculate D2E/DX2 analytically  !
 ! D77   D(21,23,26,30)       -177.6691         calculate D2E/DX2 analytically  !
 ! D78   D(27,23,26,25)       -177.2258         calculate D2E/DX2 analytically  !
 ! D79   D(27,23,26,30)          2.617          calculate D2E/DX2 analytically  !
 ! D80   D(22,25,26,23)         -0.1992         calculate D2E/DX2 analytically  !
 ! D81   D(22,25,26,30)        179.9687         calculate D2E/DX2 analytically  !
 ! D82   D(56,25,26,23)       -178.1314         calculate D2E/DX2 analytically  !
 ! D83   D(56,25,26,30)          2.0365         calculate D2E/DX2 analytically  !
 ! D84   D(22,25,56,57)         13.488          calculate D2E/DX2 analytically  !
 ! D85   D(22,25,56,58)       -101.1213         calculate D2E/DX2 analytically  !
 ! D86   D(22,25,56,59)        134.5633         calculate D2E/DX2 analytically  !
 ! D87   D(26,25,56,57)       -168.612          calculate D2E/DX2 analytically  !
 ! D88   D(26,25,56,58)         76.7786         calculate D2E/DX2 analytically  !
 ! D89   D(26,25,56,59)        -47.5367         calculate D2E/DX2 analytically  !
 ! D90   D(23,26,30,31)       -173.4971         calculate D2E/DX2 analytically  !
 ! D91   D(25,26,30,31)          6.3438         calculate D2E/DX2 analytically  !
 ! D92   D(34,32,33,35)          2.5928         calculate D2E/DX2 analytically  !
 ! D93   D(34,32,33,36)       -179.0972         calculate D2E/DX2 analytically  !
 ! D94   D(77,32,33,35)       -175.9022         calculate D2E/DX2 analytically  !
 ! D95   D(77,32,33,36)          2.4078         calculate D2E/DX2 analytically  !
 ! D96   D(33,32,34,37)         -2.3804         calculate D2E/DX2 analytically  !
 ! D97   D(33,32,34,38)        178.5647         calculate D2E/DX2 analytically  !
 ! D98   D(77,32,34,37)        176.1282         calculate D2E/DX2 analytically  !
 ! D99   D(77,32,34,38)         -2.9267         calculate D2E/DX2 analytically  !
 ! D100  D(33,32,77,76)        155.4537         calculate D2E/DX2 analytically  !
 ! D101  D(33,32,77,84)        -21.9618         calculate D2E/DX2 analytically  !
 ! D102  D(34,32,77,76)        -23.0499         calculate D2E/DX2 analytically  !
 ! D103  D(34,32,77,84)        159.5346         calculate D2E/DX2 analytically  !
 ! D104  D(32,33,35,39)         -0.5993         calculate D2E/DX2 analytically  !
 ! D105  D(32,33,35,42)        179.2177         calculate D2E/DX2 analytically  !
 ! D106  D(36,33,35,39)       -178.9468         calculate D2E/DX2 analytically  !
 ! D107  D(36,33,35,42)          0.8701         calculate D2E/DX2 analytically  !
 ! D108  D(32,34,37,39)          0.14           calculate D2E/DX2 analytically  !
 ! D109  D(32,34,37,40)       -178.0389         calculate D2E/DX2 analytically  !
 ! D110  D(38,34,37,39)        179.1957         calculate D2E/DX2 analytically  !
 ! D111  D(38,34,37,40)          1.0167         calculate D2E/DX2 analytically  !
 ! D112  D(33,35,39,37)         -1.5644         calculate D2E/DX2 analytically  !
 ! D113  D(33,35,39,44)        170.9727         calculate D2E/DX2 analytically  !
 ! D114  D(42,35,39,37)        178.6276         calculate D2E/DX2 analytically  !
 ! D115  D(42,35,39,44)         -8.8354         calculate D2E/DX2 analytically  !
 ! D116  D(33,35,42,43)        170.5667         calculate D2E/DX2 analytically  !
 ! D117  D(39,35,42,43)         -9.6154         calculate D2E/DX2 analytically  !
 ! D118  D(34,37,39,35)          1.7885         calculate D2E/DX2 analytically  !
 ! D119  D(34,37,39,44)       -170.4053         calculate D2E/DX2 analytically  !
 ! D120  D(40,37,39,35)       -179.9689         calculate D2E/DX2 analytically  !
 ! D121  D(40,37,39,44)          7.8374         calculate D2E/DX2 analytically  !
 ! D122  D(34,37,40,41)         10.9564         calculate D2E/DX2 analytically  !
 ! D123  D(39,37,40,41)       -167.2915         calculate D2E/DX2 analytically  !
 ! D124  D(35,39,44,45)        -36.7325         calculate D2E/DX2 analytically  !
 ! D125  D(35,39,44,46)        128.1488         calculate D2E/DX2 analytically  !
 ! D126  D(37,39,44,45)        135.3373         calculate D2E/DX2 analytically  !
 ! D127  D(37,39,44,46)        -59.7814         calculate D2E/DX2 analytically  !
 ! D128  D(39,44,46,47)          3.0926         calculate D2E/DX2 analytically  !
 ! D129  D(39,44,46,48)        175.2868         calculate D2E/DX2 analytically  !
 ! D130  D(45,44,46,47)        167.4224         calculate D2E/DX2 analytically  !
 ! D131  D(45,44,46,48)        -20.3834         calculate D2E/DX2 analytically  !
 ! D132  D(44,46,48,49)         -5.9389         calculate D2E/DX2 analytically  !
 ! D133  D(44,46,48,52)       -175.6949         calculate D2E/DX2 analytically  !
 ! D134  D(47,46,48,49)        166.2754         calculate D2E/DX2 analytically  !
 ! D135  D(47,46,48,52)         -3.4806         calculate D2E/DX2 analytically  !
 ! D136  D(46,48,49,14)        -67.5077         calculate D2E/DX2 analytically  !
 ! D137  D(46,48,49,50)         33.1205         calculate D2E/DX2 analytically  !
 ! D138  D(46,48,49,51)       -178.541          calculate D2E/DX2 analytically  !
 ! D139  D(52,48,49,14)        102.2535         calculate D2E/DX2 analytically  !
 ! D140  D(52,48,49,50)       -157.1182         calculate D2E/DX2 analytically  !
 ! D141  D(52,48,49,51)         -8.7797         calculate D2E/DX2 analytically  !
 ! D142  D(46,48,52,53)         19.0465         calculate D2E/DX2 analytically  !
 ! D143  D(46,48,52,54)        139.6536         calculate D2E/DX2 analytically  !
 ! D144  D(46,48,52,55)       -101.0392         calculate D2E/DX2 analytically  !
 ! D145  D(49,48,52,53)       -150.7252         calculate D2E/DX2 analytically  !
 ! D146  D(49,48,52,54)        -30.1181         calculate D2E/DX2 analytically  !
 ! D147  D(49,48,52,55)         89.1891         calculate D2E/DX2 analytically  !
 ! D148  D(25,56,59,60)        -43.6531         calculate D2E/DX2 analytically  !
 ! D149  D(25,56,59,61)        137.2935         calculate D2E/DX2 analytically  !
 ! D150  D(57,56,59,60)         76.4993         calculate D2E/DX2 analytically  !
 ! D151  D(57,56,59,61)       -102.5541         calculate D2E/DX2 analytically  !
 ! D152  D(58,56,59,60)       -166.8162         calculate D2E/DX2 analytically  !
 ! D153  D(58,56,59,61)         14.1304         calculate D2E/DX2 analytically  !
 ! D154  D(56,59,61,62)        179.6722         calculate D2E/DX2 analytically  !
 ! D155  D(56,59,61,66)          1.0923         calculate D2E/DX2 analytically  !
 ! D156  D(60,59,61,62)          0.6458         calculate D2E/DX2 analytically  !
 ! D157  D(60,59,61,66)       -177.9341         calculate D2E/DX2 analytically  !
 ! D158  D(59,61,62,63)       -118.6641         calculate D2E/DX2 analytically  !
 ! D159  D(59,61,62,64)          2.2243         calculate D2E/DX2 analytically  !
 ! D160  D(59,61,62,65)        123.2809         calculate D2E/DX2 analytically  !
 ! D161  D(66,61,62,63)         60.0546         calculate D2E/DX2 analytically  !
 ! D162  D(66,61,62,64)       -179.0571         calculate D2E/DX2 analytically  !
 ! D163  D(66,61,62,65)        -58.0004         calculate D2E/DX2 analytically  !
 ! D164  D(59,61,66,67)       -121.7951         calculate D2E/DX2 analytically  !
 ! D165  D(59,61,66,68)         -0.0958         calculate D2E/DX2 analytically  !
 ! D166  D(59,61,66,69)        120.3597         calculate D2E/DX2 analytically  !
 ! D167  D(62,61,66,67)         59.5469         calculate D2E/DX2 analytically  !
 ! D168  D(62,61,66,68)       -178.7538         calculate D2E/DX2 analytically  !
 ! D169  D(62,61,66,69)        -58.2983         calculate D2E/DX2 analytically  !
 ! D170  D(75,70,71,72)          0.3756         calculate D2E/DX2 analytically  !
 ! D171  D(75,70,71,84)       -178.4495         calculate D2E/DX2 analytically  !
 ! D172  D(76,70,71,72)        179.1876         calculate D2E/DX2 analytically  !
 ! D173  D(76,70,71,84)          0.3625         calculate D2E/DX2 analytically  !
 ! D174  D(71,70,75,74)         -0.1099         calculate D2E/DX2 analytically  !
 ! D175  D(71,70,75,80)        179.6974         calculate D2E/DX2 analytically  !
 ! D176  D(76,70,75,74)       -178.4533         calculate D2E/DX2 analytically  !
 ! D177  D(76,70,75,80)          1.354          calculate D2E/DX2 analytically  !
 ! D178  D(71,70,76,77)         -0.1064         calculate D2E/DX2 analytically  !
 ! D179  D(71,70,76,81)       -175.7536         calculate D2E/DX2 analytically  !
 ! D180  D(75,70,76,77)        178.3823         calculate D2E/DX2 analytically  !
 ! D181  D(75,70,76,81)          2.735          calculate D2E/DX2 analytically  !
 ! D182  D(70,71,72,73)         -0.3491         calculate D2E/DX2 analytically  !
 ! D183  D(70,71,72,78)       -179.8668         calculate D2E/DX2 analytically  !
 ! D184  D(84,71,72,73)        178.2997         calculate D2E/DX2 analytically  !
 ! D185  D(84,71,72,78)         -1.2179         calculate D2E/DX2 analytically  !
 ! D186  D(70,71,84,77)         -0.4723         calculate D2E/DX2 analytically  !
 ! D187  D(72,71,84,77)       -179.2817         calculate D2E/DX2 analytically  !
 ! D188  D(71,72,73,74)          0.07           calculate D2E/DX2 analytically  !
 ! D189  D(71,72,73,82)       -179.8457         calculate D2E/DX2 analytically  !
 ! D190  D(78,72,73,74)        179.5961         calculate D2E/DX2 analytically  !
 ! D191  D(78,72,73,82)         -0.3196         calculate D2E/DX2 analytically  !
 ! D192  D(72,73,74,75)          0.1732         calculate D2E/DX2 analytically  !
 ! D193  D(72,73,74,79)        179.9858         calculate D2E/DX2 analytically  !
 ! D194  D(82,73,74,75)       -179.9151         calculate D2E/DX2 analytically  !
 ! D195  D(82,73,74,79)         -0.1025         calculate D2E/DX2 analytically  !
 ! D196  D(72,73,82,83)       -179.574          calculate D2E/DX2 analytically  !
 ! D197  D(74,73,82,83)          0.5108         calculate D2E/DX2 analytically  !
 ! D198  D(73,74,75,70)         -0.1497         calculate D2E/DX2 analytically  !
 ! D199  D(73,74,75,80)       -179.9584         calculate D2E/DX2 analytically  !
 ! D200  D(79,74,75,70)       -179.9614         calculate D2E/DX2 analytically  !
 ! D201  D(79,74,75,80)          0.2298         calculate D2E/DX2 analytically  !
 ! D202  D(70,76,77,32)       -177.7055         calculate D2E/DX2 analytically  !
 ! D203  D(70,76,77,84)         -0.1816         calculate D2E/DX2 analytically  !
 ! D204  D(81,76,77,32)         -1.9786         calculate D2E/DX2 analytically  !
 ! D205  D(81,76,77,84)        175.5453         calculate D2E/DX2 analytically  !
 ! D206  D(32,77,84,71)        178.3438         calculate D2E/DX2 analytically  !
 ! D207  D(76,77,84,71)          0.4066         calculate D2E/DX2 analytically  !
 --------------------------------------------------------------------------------
 Trust Radius=3.00D-01 FncErr=5.00D-06 GrdErr=5.00D-06 EigMax=2.50D+02 EigMin=1.00D-04
 Number of steps in this run=    448 maximum allowed number of steps=    504.
 Search for a saddle point of order  1.
 GradGradGradGradGradGradGradGradGradGradGradGradGradGradGradGradGradGrad

 Stoichiometry    C39H36O9
 Framework group  C1[X(C39H36O9)]
 Deg. of freedom   246
 Full point group                 C1      NOp   1
 Largest Abelian subgroup         C1      NOp   1
 Largest concise Abelian subgroup C1      NOp   1
                         Standard orientation:                         
 ---------------------------------------------------------------------
 Center     Atomic      Atomic             Coordinates (Angstroms)
 Number     Number       Type             X           Y           Z
 ---------------------------------------------------------------------
      1          6           0       -7.952489    0.656089    1.011589
      2          6           0       -7.733615   -0.251826    2.045403
      3          6           0       -6.467572   -0.802624    2.232069
      4          6           0       -5.431038   -0.426818    1.384740
      5          6           0       -5.609969    0.490595    0.349622
      6          6           0       -6.901684    1.015689    0.174511
      7          1           0       -8.948481    1.068927    0.876138
      8          1           0       -6.291049   -1.522699    3.027248
      9          1           0       -4.456081   -0.886208    1.520518
     10          8           0       -8.799324   -0.562533    2.829602
     11          1           0       -8.520275   -1.194118    3.503096
     12          8           0       -7.085656    1.876643   -0.863803
     13          1           0       -7.999089    2.186088   -0.862891
     14          6           0       -4.523065    0.858177   -0.594241
     15          1           0       -4.749877    1.690984   -1.254440
     16          6           0       -3.187729    0.772657   -0.175361
     17          1           0       -2.950445    0.289529    0.760998
     18          6           0       -2.118549    1.492245   -0.833243
     19          8           0       -2.225991    1.856298   -2.027432
     20          6           0       -0.856190    1.684867   -0.091814
     21          6           0       -0.795810    1.642609    1.309676
     22          6           0        0.353493    1.847300   -0.805174
     23          6           0        0.403130    1.720050    1.982236
     24          1           0       -1.717955    1.575591    1.878289
     25          6           0        1.594327    1.879456   -0.145425
     26          6           0        1.596812    1.812494    1.250426
     27          1           0        0.455528    1.716660    3.065569
     28          8           0        0.358864    1.939647   -2.141512
     29          1           0       -0.589016    1.991185   -2.421656
     30          8           0        2.737256    1.835521    1.979611
     31          1           0        3.494329    2.003928    1.392069
     32          6           0        1.804433   -1.579649   -0.070669
     33          6           0        1.499099   -1.534617   -1.427226
     34          6           0        0.778483   -1.645602    0.876547
     35          6           0        0.167138   -1.501133   -1.824392
     36          1           0        2.276565   -1.497827   -2.180157
     37          6           0       -0.546069   -1.616236    0.464861
     38          1           0        1.017238   -1.704279    1.934601
     39          6           0       -0.887635   -1.523882   -0.893376
     40          8           0       -1.565738   -1.639183    1.369828
     41          1           0       -1.190952   -1.501477    2.248364
     42          8           0       -0.066867   -1.441410   -3.157454
     43          1           0       -1.008490   -1.571808   -3.325865
     44          6           0       -2.257654   -1.285313   -1.364145
     45          1           0       -2.320836   -0.543130   -2.156501
     46          6           0       -3.364126   -2.069071   -1.133063
     47          1           0       -3.265406   -2.946994   -0.498550
     48          6           0       -4.651165   -1.681746   -1.559056
     49          6           0       -4.845035   -0.419859   -2.123276
     50          1           0       -4.069132    0.051413   -2.720197
     51          1           0       -5.854549   -0.141980   -2.419678
     52          6           0       -5.844112   -2.527952   -1.196624
     53          1           0       -5.629110   -3.192430   -0.354028
     54          1           0       -6.700018   -1.901991   -0.924031
     55          1           0       -6.148216   -3.152539   -2.046192
     56          6           0        2.871490    1.937929   -0.956651
     57          1           0        2.598903    2.189383   -1.986285
     58          1           0        3.314524    0.935327   -0.995715
     59          6           0        3.866217    2.950596   -0.443321
     60          1           0        3.429048    3.911563   -0.167779
     61          6           0        5.193185    2.808360   -0.309476
     62          6           0        6.038879    3.939281    0.218585
     63          1           0        6.776042    4.253938   -0.531129
     64          1           0        5.436218    4.810068    0.492205
     65          1           0        6.605640    3.620712    1.102877
     66          6           0        5.966601    1.572296   -0.682286
     67          1           0        6.511591    1.173109    0.182187
     68          1           0        5.340751    0.773665   -1.082045
     69          1           0        6.717622    1.818382   -1.443588
     70          6           0        5.176834   -1.251939    1.375406
     71          6           0        5.354000   -1.733091    0.071059
     72          6           0        6.587642   -1.980042   -0.508716
     73          6           0        7.700263   -1.714943    0.282715
     74          6           0        7.563294   -1.225368    1.596487
     75          6           0        6.311977   -0.993835    2.148131
     76          6           0        3.753903   -1.128086    1.545681
     77          6           0        3.192711   -1.525523    0.376183
     78          1           0        6.695857   -2.350296   -1.520818
     79          1           0        8.456266   -1.029724    2.186089
     80          1           0        6.222999   -0.615759    3.161722
     81          1           0        3.227340   -0.727826    2.398992
     82          8           0        8.921793   -1.948115   -0.270163
     83          1           0        9.607261   -1.734481    0.373452
     84          8           0        4.153514   -1.893632   -0.539081
 ---------------------------------------------------------------------
 Rotational constants (GHZ):           0.1567267           0.0315372           0.0303891
 Standard basis: 6-31G(d) (6D, 7F)
 There are   792 symmetry adapted cartesian basis functions of A   symmetry.
 There are   792 symmetry adapted basis functions of A   symmetry.
   792 basis functions,  1488 primitive gaussians,   792 cartesian basis functions
   171 alpha electrons      171 beta electrons
       nuclear repulsion energy      6209.2071370952 Hartrees.
 NAtoms=   84 NActive=   84 NUniq=   84 SFac= 1.00D+00 NAtFMM=   60 NAOKFM=T Big=T
 Integral buffers will be    131072 words long.
 Raffenetti 2 integral format.
 Two-electron integral symmetry is turned on.
 Nuclear repulsion after empirical dispersion term =     6209.1134582157 Hartrees.
 Force inversion solution in PCM.
 Using the following non-standard input for PCM:
 --- end of non-standard input.
 Force inversion solution in PCM.
 ------------------------------------------------------------------------------
 Polarizable Continuum Model (PCM)
 =================================
 Model                : C-PCM.
 Atomic radii         : UFF (Universal Force Field).
 Polarization charges : Total charges.
 Charge compensation  : None.
 Solution method      : Matrix inversion.
 Cavity type          : Scaled VdW (van der Waals Surface) (Alpha=1.100).
 Cavity algorithm     : GePol (No added spheres)
                        Default sphere list used, NSphG=   84.
                        Lebedev-Laikov grids with approx.  5.0 points / Ang**2.
                        Smoothing algorithm: York/Karplus (Gamma=1.0000).
                        Polarization charges: spherical gaussians, with
                                              point-specific exponents (IZeta= 3).
                        Self-potential: point-specific (ISelfS= 7).
                        Self-field    : sphere-specific E.n sum rule (ISelfD= 2).
 1st derivatives      : Analytical E(r).r(x)/FMM algorithm (CHGder, D1EAlg=3).
                        Cavity 1st derivative terms included.
 2nd derivatives      : Analytical E(r).r(xy)/FMM algorithm (CHGder, D2EAlg=3).
                        Cavity 2nd derivative terms included.
 Solvent              : Water, Eps=  78.355300 Eps(inf)=   1.777849
 ------------------------------------------------------------------------------
 One-electron integrals computed using PRISM.
 NBasis=   792 RedAO= T EigKep=  3.10D-04  NBF=   792
 NBsUse=   792 1.00D-06 EigRej= -1.00D+00 NBFU=   792
 ExpMin= 1.61D-01 ExpMax= 5.48D+03 ExpMxC= 8.25D+02 IAcc=3 IRadAn=         5 AccDes= 0.00D+00
 Harris functional with IExCor= 4639 and IRadAn=       5 diagonalized for initial guess.
 HarFok:  IExCor= 4639 AccDes= 0.00D+00 IRadAn=         5 IDoV= 1 UseB2=F ITyADJ=14
 ICtDFT=  3500011 ScaDFX=  1.000000  1.000000  1.000000  1.000000
 FoFCou: FMM=F IPFlag=           0 FMFlag=      100000 FMFlg1=        2001
         NFxFlg=           0 DoJE=T BraDBF=F KetDBF=T FulRan=T
         wScrn=  0.000000 ICntrl=       500 IOpCl=  0 I1Cent=   200000004 NGrid=           0
         NMat0=    1 NMatS0=      1 NMatT0=    0 NMatD0=    1 NMtDS0=    0 NMtDT0=    0
 Petite list used in FoFCou.
 Requested convergence on RMS density matrix=1.00D-08 within 128 cycles.
 Requested convergence on MAX density matrix=1.00D-06.
 Requested convergence on             energy=1.00D-06.
 No special actions if energy rises.
 Inv3:  Mode=1 IEnd=    79722075.
 Iteration    1 A*A^-1 deviation from unit magnitude is 5.11D-15 for    634.
 Iteration    1 A*A^-1 deviation from orthogonality  is 3.00D-15 for   3399   1404.
 Iteration    1 A^-1*A deviation from unit magnitude is 3.77D-15 for    634.
 Iteration    1 A^-1*A deviation from orthogonality  is 3.21D-15 for   4774   4207.
 Error on total polarization charges =  0.01109
 SCF Done:  E(RwB97XD) =  -2184.10437531     A.U. after   15 cycles
            NFock= 15  Conv=0.70D-08     -V/T= 2.0090
 DoSCS=F DFT=T ScalE2(SS,OS)=  1.000000  1.000000
 Range of M.O.s used for correlation:     1   792
 NBasis=   792 NAE=   171 NBE=   171 NFC=     0 NFV=     0
 NROrb=    792 NOA=   171 NOB=   171 NVA=   621 NVB=   621
 Symmetrizing basis deriv contribution to polar:
 IMax=3 JMax=2 DiffMx= 0.00D+00
 G2DrvN: will do    85 centers at a time, making    1 passes.
 Calling FoFCou, ICntrl=  3107 FMM=T I1Cent=   0 AccDes= 0.00D+00.
 NEqPCM:  Using equilibrium solvation (IEInf=0, Eps=  78.3553, EpsInf=   1.7778)
 G2PCM: DoFxE=T DoFxN=T DoGrad=T DoDP/DQ/DG/TGxP=FFFF NFrqRd=   0 IEInf=0 SqF1=F DoCFld=F IF1Alg=4.
 End of G2Drv F.D. properties file   721 does not exist.
 End of G2Drv F.D. properties file   722 does not exist.
 End of G2Drv F.D. properties file   788 does not exist.
          IDoAtm=11111111111111111111111111111111111111111111111111
          IDoAtm=1111111111111111111111111111111111
 NEqPCM:  Using equilibrium solvation (IEInf=0, Eps=  78.3553, EpsInf=   1.7778)
          Differentiating once with respect to nuclear coordinates.
 CalDSu exits because no D1Ps are significant.
          There are   255 degrees of freedom in the 1st order CPHF.  IDoFFX=6 NUNeed=     0.
    249 vectors produced by pass  0 Test12= 1.06D-13 1.00D-09 XBig12= 9.57D-02 6.43D-02.
 AX will form    96 AO Fock derivatives at one time.
    249 vectors produced by pass  1 Test12= 1.06D-13 1.00D-09 XBig12= 1.36D-02 2.19D-02.
    249 vectors produced by pass  2 Test12= 1.06D-13 1.00D-09 XBig12= 4.29D-04 3.22D-03.
    249 vectors produced by pass  3 Test12= 1.06D-13 1.00D-09 XBig12= 3.88D-06 2.02D-04.
    249 vectors produced by pass  4 Test12= 1.06D-13 1.00D-09 XBig12= 2.14D-08 1.23D-05.
    249 vectors produced by pass  5 Test12= 1.06D-13 1.00D-09 XBig12= 1.36D-10 1.03D-06.
    225 vectors produced by pass  6 Test12= 1.06D-13 1.00D-09 XBig12= 7.89D-13 6.09D-08.
     56 vectors produced by pass  7 Test12= 1.06D-13 1.00D-09 XBig12= 4.19D-15 3.59D-09.
 InvSVY:  IOpt=1 It=  1 EMax= 4.44D-16
 Solved reduced A of dimension  1775 with   255 vectors.
 End of Minotr F.D. properties file   721 does not exist.
 End of Minotr F.D. properties file   722 does not exist.
 End of Minotr F.D. properties file   788 does not exist.

 **********************************************************************

            Population analysis using the SCF density.

 **********************************************************************

 Orbital symmetries:
       Occupied  (A) (A) (A) (A) (A) (A) (A) (A) (A) (A) (A) (A)
                 (A) (A) (A) (A) (A) (A) (A) (A) (A) (A) (A) (A)
                 (A) (A) (A) (A) (A) (A) (A) (A) (A) (A) (A) (A)
                 (A) (A) (A) (A) (A) (A) (A) (A) (A) (A) (A) (A)
                 (A) (A) (A) (A) (A) (A) (A) (A) (A) (A) (A) (A)
                 (A) (A) (A) (A) (A) (A) (A) (A) (A) (A) (A) (A)
                 (A) (A) (A) (A) (A) (A) (A) (A) (A) (A) (A) (A)
                 (A) (A) (A) (A) (A) (A) (A) (A) (A) (A) (A) (A)
                 (A) (A) (A) (A) (A) (A) (A) (A) (A) (A) (A) (A)
                 (A) (A) (A) (A) (A) (A) (A) (A) (A) (A) (A) (A)
                 (A) (A) (A) (A) (A) (A) (A) (A) (A) (A) (A) (A)
                 (A) (A) (A) (A) (A) (A) (A) (A) (A) (A) (A) (A)
                 (A) (A) (A) (A) (A) (A) (A) (A) (A) (A) (A) (A)
                 (A) (A) (A) (A) (A) (A) (A) (A) (A) (A) (A) (A)
                 (A) (A) (A)
       Virtual   (A) (A) (A) (A) (A) (A) (A) (A) (A) (A) (A) (A)
                 (A) (A) (A) (A) (A) (A) (A) (A) (A) (A) (A) (A)
                 (A) (A) (A) (A) (A) (A) (A) (A) (A) (A) (A) (A)
                 (A) (A) (A) (A) (A) (A) (A) (A) (A) (A) (A) (A)
                 (A) (A) (A) (A) (A) (A) (A) (A) (A) (A) (A) (A)
                 (A) (A) (A) (A) (A) (A) (A) (A) (A) (A) (A) (A)
                 (A) (A) (A) (A) (A) (A) (A) (A) (A) (A) (A) (A)
                 (A) (A) (A) (A) (A) (A) (A) (A) (A) (A) (A) (A)
                 (A) (A) (A) (A) (A) (A) (A) (A) (A) (A) (A) (A)
                 (A) (A) (A) (A) (A) (A) (A) (A) (A) (A) (A) (A)
                 (A) (A) (A) (A) (A) (A) (A) (A) (A) (A) (A) (A)
                 (A) (A) (A) (A) (A) (A) (A) (A) (A) (A) (A) (A)
                 (A) (A) (A) (A) (A) (A) (A) (A) (A) (A) (A) (A)
                 (A) (A) (A) (A) (A) (A) (A) (A) (A) (A) (A) (A)
                 (A) (A) (A) (A) (A) (A) (A) (A) (A) (A) (A) (A)
                 (A) (A) (A) (A) (A) (A) (A) (A) (A) (A) (A) (A)
                 (A) (A) (A) (A) (A) (A) (A) (A) (A) (A) (A) (A)
                 (A) (A) (A) (A) (A) (A) (A) (A) (A) (A) (A) (A)
                 (A) (A) (A) (A) (A) (A) (A) (A) (A) (A) (A) (A)
                 (A) (A) (A) (A) (A) (A) (A) (A) (A) (A) (A) (A)
                 (A) (A) (A) (A) (A) (A) (A) (A) (A) (A) (A) (A)
                 (A) (A) (A) (A) (A) (A) (A) (A) (A) (A) (A) (A)
                 (A) (A) (A) (A) (A) (A) (A) (A) (A) (A) (A) (A)
                 (A) (A) (A) (A) (A) (A) (A) (A) (A) (A) (A) (A)
                 (A) (A) (A) (A) (A) (A) (A) (A) (A) (A) (A) (A)
                 (A) (A) (A) (A) (A) (A) (A) (A) (A) (A) (A) (A)
                 (A) (A) (A) (A) (A) (A) (A) (A) (A) (A) (A) (A)
                 (A) (A) (A) (A) (A) (A) (A) (A) (A) (A) (A) (A)
                 (A) (A) (A) (A) (A) (A) (A) (A) (A) (A) (A) (A)
                 (A) (A) (A) (A) (A) (A) (A) (A) (A) (A) (A) (A)
                 (A) (A) (A) (A) (A) (A) (A) (A) (A) (A) (A) (A)
                 (A) (A) (A) (A) (A) (A) (A) (A) (A) (A) (A) (A)
                 (A) (A) (A) (A) (A) (A) (A) (A) (A) (A) (A) (A)
                 (A) (A) (A) (A) (A) (A) (A) (A) (A) (A) (A) (A)
                 (A) (A) (A) (A) (A) (A) (A) (A) (A) (A) (A) (A)
                 (A) (A) (A) (A) (A) (A) (A) (A) (A) (A) (A) (A)
                 (A) (A) (A) (A) (A) (A) (A) (A) (A) (A) (A) (A)
                 (A) (A) (A) (A) (A) (A) (A) (A) (A) (A) (A) (A)
                 (A) (A) (A) (A) (A) (A) (A) (A) (A) (A) (A) (A)
                 (A) (A) (A) (A) (A) (A) (A) (A) (A) (A) (A) (A)
                 (A) (A) (A) (A) (A) (A) (A) (A) (A) (A) (A) (A)
                 (A) (A) (A) (A) (A) (A) (A) (A) (A) (A) (A) (A)
                 (A) (A) (A) (A) (A) (A) (A) (A) (A) (A) (A) (A)
                 (A) (A) (A) (A) (A) (A) (A) (A) (A) (A) (A) (A)
                 (A) (A) (A) (A) (A) (A) (A) (A) (A) (A) (A) (A)
                 (A) (A) (A) (A) (A) (A) (A) (A) (A) (A) (A) (A)
                 (A) (A) (A) (A) (A) (A) (A) (A) (A) (A) (A) (A)
                 (A) (A) (A) (A) (A) (A) (A) (A) (A) (A) (A) (A)
                 (A) (A) (A) (A) (A) (A) (A) (A) (A) (A) (A) (A)
                 (A) (A) (A) (A) (A) (A) (A) (A) (A) (A) (A) (A)
                 (A) (A) (A) (A) (A) (A) (A) (A) (A) (A) (A) (A)
                 (A) (A) (A) (A) (A) (A) (A) (A) (A)
 The electronic state is 1-A.
 Alpha  occ. eigenvalues --  -19.34231 -19.30990 -19.30846 -19.30769 -19.30544
 Alpha  occ. eigenvalues --  -19.30524 -19.29937 -19.28838 -19.25120 -10.38127
 Alpha  occ. eigenvalues --  -10.37354 -10.37179 -10.37164 -10.36934 -10.36853
 Alpha  occ. eigenvalues --  -10.36825 -10.36691 -10.36497 -10.36263 -10.32781
 Alpha  occ. eigenvalues --  -10.32627 -10.32583 -10.31877 -10.31409 -10.31281
 Alpha  occ. eigenvalues --  -10.31219 -10.30809 -10.30761 -10.30702 -10.30560
 Alpha  occ. eigenvalues --  -10.30524 -10.30479 -10.30443 -10.30376 -10.30296
 Alpha  occ. eigenvalues --  -10.30126 -10.30070 -10.30046 -10.29846 -10.29702
 Alpha  occ. eigenvalues --  -10.29674 -10.29671 -10.29547 -10.29160 -10.29081
 Alpha  occ. eigenvalues --  -10.29012 -10.28876 -10.28652  -1.22158  -1.17400
 Alpha  occ. eigenvalues --   -1.17059  -1.17034  -1.16764  -1.16733  -1.16580
 Alpha  occ. eigenvalues --   -1.16314  -1.12141  -0.96975  -0.96209  -0.96067
 Alpha  occ. eigenvalues --   -0.95291  -0.93843  -0.92149  -0.91111  -0.89510
 Alpha  occ. eigenvalues --   -0.88732  -0.87776  -0.85702  -0.85138  -0.84545
 Alpha  occ. eigenvalues --   -0.84483  -0.84049  -0.82628  -0.81333  -0.81050
 Alpha  occ. eigenvalues --   -0.78843  -0.78814  -0.75733  -0.74932  -0.74465
 Alpha  occ. eigenvalues --   -0.73504  -0.72996  -0.71918  -0.71828  -0.70661
 Alpha  occ. eigenvalues --   -0.69960  -0.69201  -0.68682  -0.68584  -0.65858
 Alpha  occ. eigenvalues --   -0.65721  -0.64579  -0.63200  -0.63121  -0.61695
 Alpha  occ. eigenvalues --   -0.61120  -0.60765  -0.59420  -0.59151  -0.59011
 Alpha  occ. eigenvalues --   -0.58932  -0.58668  -0.58045  -0.57661  -0.56777
 Alpha  occ. eigenvalues --   -0.56338  -0.55927  -0.55704  -0.55177  -0.54997
 Alpha  occ. eigenvalues --   -0.54335  -0.53752  -0.53214  -0.52857  -0.52605
 Alpha  occ. eigenvalues --   -0.52472  -0.51913  -0.51817  -0.51694  -0.50703
 Alpha  occ. eigenvalues --   -0.50586  -0.50337  -0.50196  -0.50189  -0.49838
 Alpha  occ. eigenvalues --   -0.49264  -0.49135  -0.48959  -0.48850  -0.48676
 Alpha  occ. eigenvalues --   -0.48322  -0.48140  -0.47812  -0.47027  -0.46917
 Alpha  occ. eigenvalues --   -0.46745  -0.46655  -0.46138  -0.46065  -0.45739
 Alpha  occ. eigenvalues --   -0.45586  -0.45280  -0.45189  -0.44994  -0.44863
 Alpha  occ. eigenvalues --   -0.43956  -0.43810  -0.43511  -0.42846  -0.42779
 Alpha  occ. eigenvalues --   -0.42678  -0.42533  -0.42190  -0.41839  -0.41306
 Alpha  occ. eigenvalues --   -0.40958  -0.39993  -0.39678  -0.37016  -0.35588
 Alpha  occ. eigenvalues --   -0.33601  -0.32348  -0.31933  -0.31802  -0.31417
 Alpha  occ. eigenvalues --   -0.29894  -0.29785  -0.29088  -0.28146  -0.27165
 Alpha  occ. eigenvalues --   -0.26155
 Alpha virt. eigenvalues --   -0.01405   0.01564   0.04782   0.06390   0.07402
 Alpha virt. eigenvalues --    0.07482   0.08096   0.08568   0.09581   0.09613
 Alpha virt. eigenvalues --    0.10878   0.14715   0.15233   0.15938   0.16187
 Alpha virt. eigenvalues --    0.16791   0.17229   0.17443   0.17548   0.18014
 Alpha virt. eigenvalues --    0.18948   0.19116   0.19412   0.19799   0.20343
 Alpha virt. eigenvalues --    0.20509   0.21028   0.21469   0.21761   0.22621
 Alpha virt. eigenvalues --    0.22936   0.23345   0.23826   0.24046   0.24155
 Alpha virt. eigenvalues --    0.24412   0.24496   0.25401   0.25491   0.25699
 Alpha virt. eigenvalues --    0.25862   0.26106   0.26213   0.26516   0.26640
 Alpha virt. eigenvalues --    0.26840   0.26952   0.27379   0.28246   0.28909
 Alpha virt. eigenvalues --    0.29154   0.29334   0.29544   0.30194   0.30232
 Alpha virt. eigenvalues --    0.30677   0.31216   0.32065   0.32449   0.32802
 Alpha virt. eigenvalues --    0.33021   0.33367   0.33625   0.34432   0.34598
 Alpha virt. eigenvalues --    0.34951   0.35981   0.36129   0.36393   0.37039
 Alpha virt. eigenvalues --    0.37417   0.38191   0.38723   0.39014   0.39943
 Alpha virt. eigenvalues --    0.40482   0.40952   0.41262   0.41528   0.42567
 Alpha virt. eigenvalues --    0.43443   0.43894   0.44298   0.45623   0.46785
 Alpha virt. eigenvalues --    0.46900   0.47504   0.47727   0.47818   0.48149
 Alpha virt. eigenvalues --    0.48555   0.49176   0.50194   0.51035   0.51265
 Alpha virt. eigenvalues --    0.52441   0.53456   0.54518   0.54726   0.55383
 Alpha virt. eigenvalues --    0.55575   0.56273   0.56729   0.57445   0.57625
 Alpha virt. eigenvalues --    0.58301   0.58783   0.59226   0.59869   0.59904
 Alpha virt. eigenvalues --    0.60455   0.60688   0.60923   0.61315   0.61783
 Alpha virt. eigenvalues --    0.62197   0.62618   0.62958   0.63351   0.63521
 Alpha virt. eigenvalues --    0.63621   0.64029   0.64483   0.64841   0.65127
 Alpha virt. eigenvalues --    0.65942   0.66237   0.66270   0.66565   0.66943
 Alpha virt. eigenvalues --    0.67528   0.67689   0.68055   0.68304   0.68381
 Alpha virt. eigenvalues --    0.68976   0.69302   0.69792   0.70112   0.70512
 Alpha virt. eigenvalues --    0.70735   0.70883   0.71240   0.71593   0.71797
 Alpha virt. eigenvalues --    0.72583   0.72814   0.73120   0.73349   0.73494
 Alpha virt. eigenvalues --    0.73964   0.74217   0.74444   0.74936   0.75087
 Alpha virt. eigenvalues --    0.75118   0.76204   0.76587   0.76727   0.77281
 Alpha virt. eigenvalues --    0.78083   0.78220   0.78886   0.79464   0.79867
 Alpha virt. eigenvalues --    0.80408   0.80945   0.81901   0.82303   0.82740
 Alpha virt. eigenvalues --    0.83199   0.83366   0.83480   0.83959   0.84105
 Alpha virt. eigenvalues --    0.84516   0.84750   0.85269   0.85563   0.85930
 Alpha virt. eigenvalues --    0.87290   0.87702   0.88269   0.88331   0.89037
 Alpha virt. eigenvalues --    0.89564   0.90023   0.90278   0.90489   0.90842
 Alpha virt. eigenvalues --    0.91424   0.91886   0.92399   0.92763   0.92982
 Alpha virt. eigenvalues --    0.93254   0.93665   0.93954   0.94326   0.94597
 Alpha virt. eigenvalues --    0.94683   0.95016   0.95094   0.95673   0.96188
 Alpha virt. eigenvalues --    0.96315   0.96833   0.97053   0.97321   0.97441
 Alpha virt. eigenvalues --    0.97857   0.98205   0.98288   0.98654   0.99284
 Alpha virt. eigenvalues --    0.99473   1.00101   1.00400   1.00643   1.00782
 Alpha virt. eigenvalues --    1.01309   1.01428   1.01733   1.02061   1.02280
 Alpha virt. eigenvalues --    1.02989   1.03734   1.03885   1.03963   1.04299
 Alpha virt. eigenvalues --    1.04749   1.05060   1.05387   1.05983   1.06284
 Alpha virt. eigenvalues --    1.06518   1.06598   1.06963   1.07804   1.08348
 Alpha virt. eigenvalues --    1.08637   1.08897   1.09181   1.09592   1.10277
 Alpha virt. eigenvalues --    1.10702   1.12180   1.12605   1.12952   1.13705
 Alpha virt. eigenvalues --    1.13941   1.14162   1.14708   1.15119   1.15834
 Alpha virt. eigenvalues --    1.16417   1.16793   1.17187   1.17881   1.18502
 Alpha virt. eigenvalues --    1.18739   1.19448   1.19937   1.20587   1.21069
 Alpha virt. eigenvalues --    1.21586   1.21890   1.22385   1.23973   1.24296
 Alpha virt. eigenvalues --    1.24709   1.25255   1.26442   1.26555   1.27637
 Alpha virt. eigenvalues --    1.27956   1.28402   1.28728   1.29655   1.30105
 Alpha virt. eigenvalues --    1.30362   1.30780   1.31236   1.32231   1.32846
 Alpha virt. eigenvalues --    1.33139   1.33941   1.34083   1.34682   1.35096
 Alpha virt. eigenvalues --    1.35816   1.36201   1.36635   1.37175   1.37715
 Alpha virt. eigenvalues --    1.38140   1.38600   1.38693   1.39562   1.40376
 Alpha virt. eigenvalues --    1.41132   1.41392   1.41794   1.42555   1.42664
 Alpha virt. eigenvalues --    1.43062   1.44423   1.44696   1.44873   1.45666
 Alpha virt. eigenvalues --    1.46165   1.46296   1.46734   1.47347   1.47614
 Alpha virt. eigenvalues --    1.48315   1.48358   1.49520   1.50005   1.50423
 Alpha virt. eigenvalues --    1.50948   1.51058   1.51718   1.52597   1.52866
 Alpha virt. eigenvalues --    1.53736   1.53982   1.54440   1.54987   1.55098
 Alpha virt. eigenvalues --    1.55291   1.56057   1.56486   1.56628   1.57232
 Alpha virt. eigenvalues --    1.57420   1.58382   1.59103   1.59951   1.60143
 Alpha virt. eigenvalues --    1.61170   1.62373   1.63458   1.64795   1.66784
 Alpha virt. eigenvalues --    1.68977   1.69063   1.69588   1.71975   1.73507
 Alpha virt. eigenvalues --    1.76357   1.77013   1.77239   1.77967   1.79902
 Alpha virt. eigenvalues --    1.80952   1.81383   1.81415   1.81526   1.81823
 Alpha virt. eigenvalues --    1.82656   1.82756   1.83526   1.84332   1.84823
 Alpha virt. eigenvalues --    1.85139   1.85529   1.85983   1.86128   1.86883
 Alpha virt. eigenvalues --    1.87228   1.87465   1.88315   1.89010   1.89358
 Alpha virt. eigenvalues --    1.89925   1.90383   1.91145   1.91337   1.91997
 Alpha virt. eigenvalues --    1.92633   1.92927   1.93148   1.93764   1.94497
 Alpha virt. eigenvalues --    1.94903   1.95070   1.95577   1.96019   1.96270
 Alpha virt. eigenvalues --    1.96820   1.97437   1.97659   1.98139   1.98779
 Alpha virt. eigenvalues --    1.99053   1.99361   2.00032   2.00184   2.00641
 Alpha virt. eigenvalues --    2.01359   2.01501   2.01954   2.02596   2.03056
 Alpha virt. eigenvalues --    2.03276   2.04036   2.04372   2.04856   2.05042
 Alpha virt. eigenvalues --    2.06111   2.06215   2.06372   2.06571   2.06942
 Alpha virt. eigenvalues --    2.07267   2.08214   2.08512   2.08959   2.09347
 Alpha virt. eigenvalues --    2.11289   2.12050   2.12259   2.12894   2.13417
 Alpha virt. eigenvalues --    2.14284   2.14377   2.15509   2.15964   2.16072
 Alpha virt. eigenvalues --    2.16488   2.17326   2.18353   2.18552   2.19096
 Alpha virt. eigenvalues --    2.20352   2.20483   2.20721   2.21597   2.22563
 Alpha virt. eigenvalues --    2.23326   2.24262   2.25262   2.25740   2.26335
 Alpha virt. eigenvalues --    2.27958   2.28681   2.29036   2.29869   2.31583
 Alpha virt. eigenvalues --    2.31729   2.33257   2.33918   2.34770   2.35409
 Alpha virt. eigenvalues --    2.35916   2.36274   2.36301   2.36960   2.37444
 Alpha virt. eigenvalues --    2.37806   2.38217   2.38641   2.39330   2.39663
 Alpha virt. eigenvalues --    2.40308   2.40727   2.41105   2.41606   2.41721
 Alpha virt. eigenvalues --    2.42272   2.43248   2.43711   2.44035   2.44302
 Alpha virt. eigenvalues --    2.45733   2.46444   2.47072   2.48069   2.48757
 Alpha virt. eigenvalues --    2.49319   2.50085   2.50329   2.51577   2.51845
 Alpha virt. eigenvalues --    2.51996   2.52133   2.52546   2.52680   2.53307
 Alpha virt. eigenvalues --    2.54119   2.55227   2.55358   2.56260   2.56648
 Alpha virt. eigenvalues --    2.57038   2.57939   2.58912   2.59464   2.60110
 Alpha virt. eigenvalues --    2.60452   2.62283   2.62727   2.63282   2.63791
 Alpha virt. eigenvalues --    2.64372   2.65650   2.66189   2.67361   2.67590
 Alpha virt. eigenvalues --    2.68384   2.69457   2.70120   2.70405   2.71019
 Alpha virt. eigenvalues --    2.72155   2.72384   2.73551   2.75140   2.75531
 Alpha virt. eigenvalues --    2.75939   2.76346   2.76576   2.78408   2.79429
 Alpha virt. eigenvalues --    2.79901   2.80487   2.81396   2.82279   2.83855
 Alpha virt. eigenvalues --    2.84203   2.84553   2.85354   2.87438   2.88893
 Alpha virt. eigenvalues --    2.89186   2.90855   2.91275   2.91870   2.94266
 Alpha virt. eigenvalues --    2.94387   2.98169   2.98924   2.99745   3.01711
 Alpha virt. eigenvalues --    3.02243   3.03186   3.04214   3.04931   3.05743
 Alpha virt. eigenvalues --    3.06035   3.07104   3.08713   3.09167   3.11001
 Alpha virt. eigenvalues --    3.11911   3.12422   3.13600   3.16080   3.17891
 Alpha virt. eigenvalues --    3.19594   3.21574   3.23296   3.23695   3.27336
 Alpha virt. eigenvalues --    3.30761   3.32866   3.36849   3.38555   3.53637
 Alpha virt. eigenvalues --    3.55026   3.56093   3.59709   4.03713   4.04254
 Alpha virt. eigenvalues --    4.08933   4.10527   4.10665   4.12489   4.17782
 Alpha virt. eigenvalues --    4.18230   4.20872   4.21826   4.22819   4.24794
 Alpha virt. eigenvalues --    4.26112   4.26720   4.27944   4.30007   4.30686
 Alpha virt. eigenvalues --    4.33504   4.34676   4.35466   4.35938   4.37122
 Alpha virt. eigenvalues --    4.39858   4.42095   4.42418   4.43451   4.44209
 Alpha virt. eigenvalues --    4.45190   4.46687   4.49175   4.52884   4.55815
 Alpha virt. eigenvalues --    4.57089   4.59108   4.61948   4.64465   4.66252
 Alpha virt. eigenvalues --    4.67789   4.69669   4.72166   4.75763   4.81077
 Alpha virt. eigenvalues --    4.83031   4.85564   4.91307   4.92983   4.95690
 Alpha virt. eigenvalues --    5.00191
          Condensed to atoms (all electrons):
 Mulliken charges:
               1
     1  C   -0.302846
     2  C    0.352252
     3  C   -0.262951
     4  C   -0.235453
     5  C    0.104946
     6  C    0.303229
     7  H    0.193221
     8  H    0.188288
     9  H    0.191147
    10  O   -0.680361
    11  H    0.452541
    12  O   -0.677582
    13  H    0.455291
    14  C   -0.250781
    15  H    0.214539
    16  C   -0.210667
    17  H    0.191870
    18  C    0.398273
    19  O   -0.631826
    20  C    0.007897
    21  C   -0.234836
    22  C    0.253381
    23  C   -0.236480
    24  H    0.188445
    25  C    0.036694
    26  C    0.306815
    27  H    0.181220
    28  O   -0.695693
    29  H    0.458512
    30  O   -0.681263
    31  H    0.443127
    32  C    0.070848
    33  C   -0.268938
    34  C   -0.281645
    35  C    0.297099
    36  H    0.190658
    37  C    0.327431
    38  H    0.189757
    39  C    0.029813
    40  O   -0.675523
    41  H    0.453994
    42  O   -0.674422
    43  H    0.452701
    44  C   -0.243422
    45  H    0.191982
    46  C   -0.178484
    47  H    0.179508
    48  C    0.195693
    49  C   -0.455662
    50  H    0.208033
    51  H    0.193989
    52  C   -0.569671
    53  H    0.182375
    54  H    0.187114
    55  H    0.193484
    56  C   -0.418235
    57  H    0.209661
    58  H    0.186341
    59  C   -0.266933
    60  H    0.168377
    61  C    0.153426
    62  C   -0.560075
    63  H    0.181937
    64  H    0.181278
    65  H    0.181494
    66  C   -0.563033
    67  H    0.182465
    68  H    0.179144
    69  H    0.183275
    70  C    0.054715
    71  C    0.349462
    72  C   -0.298749
    73  C    0.352582
    74  C   -0.262347
    75  C   -0.242933
    76  C   -0.259166
    77  C    0.257366
    78  H    0.204387
    79  H    0.193411
    80  H    0.200918
    81  H    0.213732
    82  O   -0.681860
    83  H    0.452548
    84  O   -0.550848
 Sum of Mulliken charges =  -0.00000
 Mulliken charges with hydrogens summed into heavy atoms:
               1
     1  C   -0.109625
     2  C    0.352252
     3  C   -0.074663
     4  C   -0.044307
     5  C    0.104946
     6  C    0.303229
    10  O   -0.227820
    12  O   -0.222292
    14  C   -0.036242
    16  C   -0.018798
    18  C    0.398273
    19  O   -0.631826
    20  C    0.007897
    21  C   -0.046391
    22  C    0.253381
    23  C   -0.055260
    25  C    0.036694
    26  C    0.306815
    28  O   -0.237181
    30  O   -0.238136
    32  C    0.070848
    33  C   -0.078280
    34  C   -0.091888
    35  C    0.297099
    37  C    0.327431
    39  C    0.029813
    40  O   -0.221529
    42  O   -0.221721
    44  C   -0.051441
    46  C    0.001024
    48  C    0.195693
    49  C   -0.053639
    52  C   -0.006698
    56  C   -0.022233
    59  C   -0.098556
    61  C    0.153426
    62  C   -0.015366
    66  C   -0.018148
    70  C    0.054715
    71  C    0.349462
    72  C   -0.094362
    73  C    0.352582
    74  C   -0.068936
    75  C   -0.042015
    76  C   -0.045434
    77  C    0.257366
    82  O   -0.229312
    84  O   -0.550848
 APT charges:
               1
     1  C   -0.553319
     2  C    0.309714
     3  C   -0.547994
     4  C   -0.829085
     5  C   -0.821087
     6  C    0.263735
     7  H    1.506328
     8  H    0.486287
     9  H   -0.291332
    10  O    0.170678
    11  H    0.664572
    12  O   -1.794145
    13  H    1.761642
    14  C   -0.456908
    15  H    0.651797
    16  C   -0.218074
    17  H    0.181671
    18  C   -0.430371
    19  O   -0.109807
    20  C   -0.129421
    21  C   -0.597512
    22  C   -0.278597
    23  C   -0.564089
    24  H    0.551987
    25  C    0.106288
    26  C   -0.083734
    27  H    0.659232
    28  O   -0.479809
    29  H    0.570495
[...]
 247,-0.00013174,-0.00002236,0.00000686,-0.00001290,0.00000373,-0.00000
 402,0.00013095,0.00001451,0.00005602,0.00007931,0.00000942,-0.00005734
 ,-0.00001659,-0.00000447,0.00001767,0.00004385,-0.00000700,0.00009483,
 -0.00000854,-0.00000472,-0.00001064,-0.00011189,0.00001223,-0.00001567
 ,0.00001166,0.00000300,0.00001165,0.00007609,-0.00001130,-0.00000295,-
 0.00000228,0.00000010,-0.00000121,-0.00003961,0.00001995,-0.00002332,0
 .00002055,-0.00004120,-0.00001780,-0.00000062,0.00000234,-0.00000123,0
 .00000306,0.00000584,0.00001005,0.00000239,-0.00000125,0.00000584,0.00
 000180,0.00000035,-0.00000072,0.00000289,0.00000228,0.00000021,-0.0000
 0046,0.00000063,-0.00000102,-0.00001115,0.00002027,0.00000554,0.000005
 57,-0.00000964,0.00000146,0.00000733,0.00000806,-0.00002317,0.00000844
 ,-0.00001507,-0.00000501,0.00000451,-0.00000751,-0.00000680,-0.0000231
 0,0.00001974,0.00003352,0.00001393,-0.00000677,-0.00000183,-0.00000273
 ,-0.00000107,0.00000066,-0.00000082,-0.00000823,-0.00000288,-0.0000018
 2,0.00000052,-0.00000047,0.00002504,-0.00002647,-0.00002295,0.00001487
 ,0.00006816,0.00002323,-0.00002092,0.00001851,-0.00004220,-0.00000744,
 -0.00002342,0.00001072,0.00086059,0.00012901,0.00045977,-0.00038770,-0
 .00058571,-0.00203271,-0.00387468,0.00148937,0.00497353,-0.03984883,-0
 .00919478,-0.02914815,0.00491716,-0.00081564,-0.00260865,-0.00130297,-
 0.00015897,-0.00058063,-0.00020704,0.00008453,0.00026293,0.00057777,-0
 .00001320,-0.00015656,0.00025622,0.00002913,0.00014485,-0.00035582,0.0
 0061548,0.00182170,0.00029853,-0.00006519,-0.00023615,0.00005155,0.000
 00186,-0.00001937,-0.26755931,-0.06240623,-0.19700371,0.30696184,0.000
 00005,-0.00000012,0.00000013,-0.00000080,0.00000024,0.00000014,0.00000
 080,-0.00000018,-0.00000009,-0.00000037,-0.00000020,0.00000017,-0.0000
 0028,-0.00000050,0.00000028,-0.00000022,0.00000072,-0.00000077,0.00000
 010,-0.00000001,-0.00000002,0.00000006,0.00000006,-0.00000008,-0.00000
 005,-0.00000018,0.00000027,0.00000072,0.00000013,-0.00000055,-0.000000
 03,-0.00000001,0.00000009,0.00000037,-0.00000066,0.00000052,-0.0000000
 1,0.00000013,-0.00000014,0.00000242,0.00000217,0.00000527,0.00000035,-
 0.00000050,-0.00000091,-0.00000533,-0.00000201,-0.00000037,-0.00000026
 ,0.00000024,0.00000026,0.00000552,0.00000509,-0.00000455,-0.00000120,-
 0.00000302,0.00000375,-0.00000147,-0.00000043,-0.00000082,-0.00000002,
 -0.00000054,0.00000152,0.00000008,0.00000165,-0.00000129,-0.00000150,-
 0.00000091,0.00000067,0.00000011,0.00000010,0.00000026,0.00000069,-0.0
 0000158,-0.00000112,0.00000275,0.00000184,0.00000177,-0.00000004,0.000
 00014,-0.00000017,-0.00000077,-0.00000157,0.00000091,0.00000116,0.0000
 0062,-0.00000058,-0.00000377,-0.00000186,-0.00000063,0.00000153,0.0000
 0209,-0.00000115,-0.00004764,-0.00012115,0.00000738,0.00001594,0.00000
 615,0.00001034,0.00001188,0.00000680,-0.00000293,-0.00000984,-0.000001
 60,-0.00000958,-0.00000017,0.00000057,-0.00000012,-0.00001515,0.000010
 62,0.00000350,-0.00000041,-0.00000271,-0.00000164,0.00001549,0.0000004
 5,0.00000706,0.00000386,-0.00000131,-0.00000430,-0.00000125,0.00000011
 ,0.00000112,0.00000284,-0.00000082,0.00000681,-0.00000064,-0.00000045,
 -0.00000115,-0.00001178,0.00000237,-0.00000135,0.00000121,0.00000038,0
 .00000131,0.00000786,-0.00000113,-0.00000043,-0.00000022,0.,-0.0000000
 6,-0.00000403,0.00000218,-0.00000279,0.00000214,-0.00000495,-0.0000019
 8,-0.00000011,0.00000030,-0.00000005,0.00000028,0.00000064,0.00000106,
 0.00000017,-0.00000016,0.00000050,0.00000015,0.,-0.00000002,0.00000021
 ,0.00000015,0.00000003,-0.00000008,0.00000005,-0.00000002,-0.00000005,
 0.00000164,-0.00000150,-0.00000017,-0.00000041,-0.00000005,0.00000040,
 0.00000058,-0.00000006,-0.00000049,0.00000140,0.00000200,-0.00000025,-
 0.00000011,0.,-0.00000214,-0.00000223,-0.00000309,0.00000051,0.0000001
 7,0.00000040,-0.00000024,-0.00000068,0.00000043,-0.00000073,-0.0000000
 1,-0.00000021,-0.00000013,-0.00000019,-0.00000114,0.00000463,0.0000000
 8,0.00000273,0.00000075,0.00000057,0.00000233,-0.00000943,0.00000326,-
 0.00000553,-0.00000128,0.00000176,-0.00000022,-0.00008403,-0.00001656,
 -0.00011713,0.00003911,0.00188487,-0.00023497,0.00112302,0.00190831,-0
 .00087472,0.00618339,-0.00238405,0.00456279,0.00147821,-0.00031111,0.0
 0071268,-0.00000224,-0.00067154,0.00002935,0.00002194,0.00006922,-0.00
 001553,0.00010758,-0.00011179,-0.00005513,0.00004112,-0.00075156,0.000
 26364,-0.00021175,0.00008492,-0.00058433,-0.00000232,-0.00004502,0.000
 01630,0.00000341,0.00000276,-0.00000007,-0.07934592,-0.02894819,-0.082
 87522,0.07075765,0.02927794,0.00000015,-0.00000013,0.00000015,-0.00000
 190,0.00000038,0.00000049,0.00000183,-0.00000036,-0.00000019,-0.000000
 78,-0.00000048,0.00000048,-0.00000059,-0.00000065,0.00000053,-0.000000
 43,0.00000121,-0.00000132,0.00000019,-0.00000004,-0.00000004,0.0000001
 4,0.00000013,-0.00000023,-0.00000013,-0.00000041,0.00000063,0.00000175
 ,0.00000043,-0.00000135,-0.00000009,-0.00000012,0.00000024,0.00000071,
 -0.00000102,0.00000080,-0.00000005,0.00000017,-0.00000024,0.00000318,0
 .00000350,0.00000899,0.00000055,-0.00000087,-0.00000160,-0.00000708,-0
 .00000257,-0.00000095,-0.00000062,0.00000043,0.00000047,0.00000559,0.0
 0000735,-0.00000829,-0.00000045,-0.00000465,0.00000643,-0.00000001,-0.
 00000071,-0.00000043,-0.00000014,-0.00000048,0.00000144,-0.00000175,0.
 00000259,-0.00000382,-0.00000087,-0.00000168,0.00000132,0.00000045,0.0
 0000020,0.00000041,0.00000012,-0.00000211,-0.00000032,0.00000083,0.000
 00405,0.00000356,-0.00000002,0.00000012,-0.00000058,0.00000067,-0.0000
 0274,0.00000262,0.00000050,0.00000104,-0.00000135,-0.00000263,-0.00000
 371,-0.00000287,0.00000136,0.00000315,0.00000096,-0.00008402,0.0000121
 2,-0.00007290,0.00001874,0.00000771,0.00001529,0.00005518,0.00000237,0
 .00000907,-0.00001682,-0.00000219,-0.00001810,-0.00000115,0.00000200,-
 0.00000024,-0.00003059,-0.00000987,-0.00000791,-0.00000121,0.00000403,
 -0.00000061,0.00002615,0.00000249,0.00001546,0.00001607,0.00000249,-0.
 00001003,-0.00000300,-0.00000083,0.00000357,0.00000688,-0.00000123,0.0
 0001591,-0.00000152,-0.00000086,-0.00000203,-0.00002282,0.00000322,-0.
 00000281,0.00000211,0.00000074,0.00000239,0.00001513,-0.00000212,-0.00
 000097,-0.00000042,0.00000004,-0.00000014,-0.00000774,0.00000402,-0.00
 000486,0.00000390,-0.00000840,-0.00000347,-0.00000013,0.00000049,-0.00
 000014,0.00000054,0.00000112,0.00000193,0.00000041,-0.00000023,0.00000
 111,0.00000031,0.00000006,-0.00000011,0.00000052,0.00000038,0.00000005
 ,-0.00000011,0.00000012,-0.00000017,-0.00000117,0.00000287,0.00000100,
 0.00000039,-0.00000176,0.,0.00000285,0.00000105,-0.00000331,0.00000035
 ,0.00000121,0.00000073,-0.00000050,-0.00000101,-0.00000020,-0.00000367
 ,-0.00000387,-0.00000176,0.00000104,-0.00000098,0.00000035,-0.00000022
 ,-0.00000002,-0.00000026,-0.00000008,-0.00000051,-0.00000026,-0.000000
 43,-0.00000011,-0.00000030,0.00001304,-0.00000112,0.00000058,0.0000017
 3,-0.00000045,0.00000023,-0.00000383,0.00000365,-0.00000547,-0.0000003
 1,0.00000145,-0.00000091,-0.00034535,-0.00011110,-0.00039698,-0.000001
 42,-0.00027746,0.00121992,0.00373208,-0.00084800,-0.00071635,0.0201253
 5,0.00479915,0.01165948,0.00449924,0.00085623,0.00200927,0.00007707,0.
 00004281,-0.00054964,0.00011073,-0.00002494,0.00002881,0.00031614,-0.0
 0005205,-0.00030440,0.00016235,0.00027543,0.00009759,-0.00063369,-0.00
 068858,-0.00168621,-0.00003736,0.00001568,0.00002032,0.00000759,0.0000
 0014,0.00000233,-0.25133687,-0.08315082,-0.26737141,0.22359832,0.07920
 579,0.25611941,-0.00000452,0.00000320,-0.00000290,0.00005134,-0.000009
 08,-0.00001271,-0.00004912,0.00001257,0.00000266,0.00002393,0.00000781
 ,-0.00001318,0.00000408,0.00000296,-0.00001185,0.00001905,-0.00003713,
 0.00004037,-0.00000541,0.00000123,0.00000083,-0.00000299,-0.00000327,0
 .00000572,0.00001125,0.00000801,-0.00001973,-0.00004862,-0.00001201,0.
 00003575,0.00000339,0.00000341,-0.00000597,-0.00002059,0.00003191,-0.0
 0002821,0.00000213,-0.00000491,0.00000707,0.00003450,-0.00001428,-0.00
 010518,-0.00000897,0.00000920,0.00002110,-0.00003339,-0.00002141,0.000
 03129,0.00004483,-0.00004113,-0.00002365,0.00026793,-0.00006832,0.0002
 5098,-0.00007647,0.00008147,-0.00021464,-0.00021622,0.00003947,-0.0001
 2315,0.00012662,-0.00000222,0.00011825,0.00022681,-0.00008076,0.000214
 85,-0.00024769,0.00004207,-0.00010610,-0.00002482,-0.00001009,-0.00001
 003,-0.00030647,0.00014736,-0.00006163,0.00121389,-0.00011902,0.000554
 54,0.00001408,-0.00000631,0.00001097,-0.00005377,0.00010805,-0.0001918
 3,0.00002291,-0.00003869,0.00005194,-0.00119966,0.00158236,-0.00029712
 ,-0.00020303,-0.00070355,0.00013658,-0.03621670,0.00878494,0.03126529,
 0.00088453,0.00007223,0.00132294,-0.00366656,0.00113853,-0.00596497,0.
 00006396,0.00003874,0.00180706,-0.00158508,0.00011228,0.00001735,-0.00
 010920,-0.00130773,0.00120290,0.00055283,0.00053718,0.00021004,0.00034
 377,0.00003069,0.00011418,-0.00190779,-0.00008774,0.00078643,0.0002044
 4,0.00004501,-0.00030433,-0.00036751,0.00009826,-0.00115368,0.00010332
 ,0.00001851,0.00005312,0.00006114,-0.00003191,0.00002914,-0.00004823,0
 .00000962,-0.00001179,-0.00014815,0.00007466,-0.00005920,0.00000924,0.
 00001241,0.00001989,0.00009780,-0.00006114,0.00001445,-0.00005655,0.00
 007007,0.00004921,-0.00000241,-0.00001083,0.00000837,-0.00001327,-0.00
 001139,-0.00002099,-0.00001583,0.00000972,-0.00002277,-0.00001073,-0.0
 0000434,0.00000553,-0.00001383,-0.00001359,0.00000054,-0.00000017,-0.0
 0000329,0.00000698,0.00001478,-0.00016194,0.00029940,0.00001749,-0.000
 03103,-0.00001110,0.00009508,-0.00010070,-0.00019748,0.00008279,-0.000
 07894,-0.00012051,0.00000209,0.00000345,-0.00001187,0.00001392,0.00012
 194,0.00009664,-0.00002133,0.00001313,-0.00000562,0.00001074,0.0000085
 4,0.00000041,0.00000609,0.00001392,0.00000936,0.00000907,0.00000789,0.
 00001444,-0.00017010,0.00013788,-0.00052500,-0.00007752,0.00006737,0.0
 0004341,0.00013795,0.00006630,0.00027529,0.00008280,0.00013462,0.00005
 137,-0.02626003,-0.00955863,-0.03854434,-0.22831745,-0.02612904,-0.104
 20696,-0.04447284,-0.00507614,-0.02233927,0.00441466,0.00390399,0.0123
 8820,-0.00255298,-0.00280701,-0.00852851,0.00096784,-0.00052612,-0.001
 41010,-0.01671103,0.00768261,0.03139008,-0.14551677,0.02884015,0.08704
 871,0.00287432,-0.00016496,-0.00002205,-0.00012163,0.00001944,-0.00021
 285,-0.00100173,-0.00023789,-0.00078547,0.00096247,0.00054794,-0.00024
 313,0.00038889,-0.00107552,-0.00336622,-0.00032607,-0.00007189,-0.0002
 6026,0.49774443,0.00000139,-0.00000137,0.00000177,-0.00001944,0.000003
 78,0.00000460,0.00001817,-0.00000318,-0.00000230,-0.00000595,-0.000004
 96,0.00000703,-0.00000472,-0.00000383,0.00000608,-0.00000517,0.0000135
 6,-0.00001502,0.00000202,-0.00000048,-0.00000046,0.00000128,0.00000119
 ,-0.00000227,-0.00000079,-0.00000457,0.00000498,0.00001772,0.00000454,
 -0.00001327,-0.00000107,-0.00000133,0.00000211,0.00000757,-0.00001124,
 0.00000975,-0.00000065,0.00000177,-0.00000282,0.00001706,0.00002567,0.
 00007376,0.00000447,-0.00000823,-0.00001444,-0.00002682,-0.00001393,-0
 .00000358,-0.00000507,0.00000150,0.00000544,-0.00002697,0.00004133,-0.
 00010737,0.00002153,-0.00003754,0.00007862,0.00004965,0.00000842,0.000
 05100,-0.00001570,0.00000235,-0.00005102,-0.00004898,0.00000677,-0.000
 12553,0.00004927,0.00000998,0.00002838,0.00000926,-0.00000145,0.000001
 56,0.00005643,-0.00009088,0.00001621,-0.00016584,0.00003645,-0.0000335
 1,0.00000064,0.00000261,-0.00000896,0.00002951,-0.00002358,0.00008968,
 -0.00001320,0.00000999,-0.00002271,0.00010459,-0.00011678,0.00000591,0
 .00002791,0.00011607,0.00001283,-0.00118643,-0.00267035,0.00194421,0.0
 0032825,0.00042673,0.00030294,-0.00074834,0.00146926,-0.00026872,-0.00
 036687,-0.00030669,-0.00027101,0.00026323,0.00010634,0.00010689,-0.000
 74084,0.00066430,0.00005224,-0.00004202,-0.00018222,-0.00014864,0.0003
 8369,-0.00001936,0.00024839,-0.00004130,-0.00019983,-0.00007636,-0.000
 00630,0.00001300,0.00000920,0.00000460,0.00001306,0.00004974,0.0000024
 5,-0.00000125,-0.00003203,-0.00025065,0.00004471,-0.00005214,0.0000143
 7,0.00001070,0.00003207,0.00017322,-0.00001934,-0.00000301,-0.00000300
 ,0.00000209,-0.00000131,-0.00008071,0.00004494,-0.00005045,0.00003403,
 -0.00007313,-0.00002980,-0.00000107,0.00000299,-0.00000206,0.00000541,
 0.00000984,0.00001772,0.00000506,0.00000030,0.00001268,0.00000302,0.00
 000078,-0.00000175,0.00000643,0.00000447,-0.00000008,-0.00000021,0.000
 00107,-0.00000221,-0.00017378,0.00035179,-0.00008602,0.00002729,-0.000
 04881,-0.00000726,-0.00009833,-0.00000752,0.00004871,0.00002931,-0.000
 05997,-0.00000502,-0.00000865,-0.00004474,-0.00000933,0.00005934,0.000
 02892,-0.00001293,0.00002317,-0.00000453,0.00001899,-0.00001288,-0.000
 00733,0.00000027,-0.00000609,-0.00001587,-0.00000490,-0.00000671,0.000
 00012,-0.00000263,-0.00007383,0.00020300,0.00014526,-0.00003195,0.0000
 1162,-0.00002425,0.00016268,-0.00000716,-0.00014579,-0.00004789,-0.000
 07459,-0.00005184,-0.00264341,0.00586068,-0.01335662,-0.01019832,-0.06
 725896,-0.02612945,0.00098770,0.00072531,0.00662409,0.00241341,0.00509
 914,0.00000302,0.00148066,-0.00155032,-0.00153645,-0.00170807,0.004058
 57,-0.00342772,0.00200363,0.00583901,-0.02377313,0.01776891,-0.0686684
 1,-0.03424508,-0.00050712,-0.00302672,0.00104981,-0.00007970,-0.000004
 95,0.00002695,-0.00053442,-0.00018820,-0.00024629,-0.00083513,0.007865
 66,-0.00360564,0.00003130,0.00089747,-0.00000919,0.00012391,0.00010852
 ,-0.00006235,-0.00597917,0.11061323,-0.00000167,0.00000162,-0.00000237
 ,0.00002237,-0.00000486,-0.00000537,-0.00002188,0.00000469,0.00000162,
 0.00001138,0.00000478,-0.00000407,0.00000882,0.00001077,-0.00000448,0.
 00000479,-0.00001401,0.00001548,-0.00000230,0.00000052,0.00000045,-0.0
 0000152,-0.00000156,0.00000256,0.00000298,0.00000469,-0.00000803,-0.00
 002063,-0.00000484,0.00001573,0.00000124,0.00000133,-0.00000277,-0.000
 00867,0.00001244,-0.00000962,0.00000066,-0.00000218,0.00000305,-0.0000
 6810,-0.00006159,-0.00014274,-0.00000713,0.00001353,0.00002220,0.00014
 398,0.00006169,0.00002350,0.00001098,-0.00000903,-0.00000562,-0.000206
 85,-0.00013509,0.00006350,0.00002215,0.00006845,-0.00004378,0.00014579
 ,0.00000935,0.00008739,-0.00009379,0.00000145,-0.00010016,-0.00011659,
 -0.00005197,0.00005105,0.00020587,0.00004692,0.00003515,0.00000695,-0.
 00000215,-0.00000388,0.00021371,0.00012318,0.00009977,-0.00121040,0.00
 001677,-0.00070445,-0.00001470,0.00000018,0.00001937,-0.00001024,0.000
 05988,0.00001600,0.00000683,-0.00001874,0.00002131,0.00116983,-0.00122
 369,0.00044861,0.00007004,0.00059006,-0.00017539,-0.00070523,0.0031837
 7,0.01083355,-0.00233901,0.00068390,-0.00211555,-0.00265169,-0.0005558
 3,-0.00081569,0.00081515,-0.00014679,0.00116040,-0.00158225,0.00022463
 ,0.00062654,-0.00002346,-0.00027832,0.00031077,-0.00039532,-0.00011811
 ,0.00022907,-0.00065757,0.00002476,0.00007242,-0.00049052,0.00003771,0
 .00029064,0.00001474,0.00000534,-0.00007800,-0.00014144,0.00002211,-0.
 00039988,0.00005288,-0.00000015,0.00003613,0.00033121,-0.00007223,0.00
 014271,-0.00001042,-0.00002216,-0.00004553,-0.00024230,0.00003586,0.00
 001448,0.00000654,0.00000243,-0.00000011,0.00011586,-0.00007576,0.0000
 6876,-0.00005090,0.00013714,0.00005199,0.00000276,-0.00001108,-0.00000
 345,-0.00000620,-0.00001281,-0.00002338,-0.00000649,0.00000532,-0.0000
 1342,-0.00000412,-0.00000061,0.00000093,-0.00000527,-0.00000357,-0.000
 00145,0.00000252,-0.00000095,0.00000103,0.00037760,-0.00047714,-0.0001
 0537,-0.00005649,0.00013625,0.00001719,-0.00003312,-0.00022509,0.00004
 116,-0.00020873,0.00008052,0.00001212,0.00004852,0.00008647,0.00003347
 ,0.00014152,0.00001847,0.00010153,-0.00004299,0.00003625,-0.00000407,0
 .00000959,0.00000239,-0.00000121,0.00000990,0.00002570,0.00001038,0.00
 001080,-0.00000029,0.00000382,-0.00029104,-0.00029794,-0.00040156,0.00
 007748,0.00010983,0.00005096,-0.00016258,-0.00022496,0.00020791,0.0001
 1242,0.00010443,0.00008203,-0.01330881,-0.01385189,-0.03899240,-0.0507
 6322,-0.02805276,-0.16161109,-0.00041210,0.00600058,0.02046184,0.00953
 373,0.00013540,0.00583226,0.00488488,-0.00169198,-0.00679285,-0.005724
 23,-0.00334748,-0.00674328,0.00849439,-0.02244946,-0.06757616,0.044801
 59,-0.03368462,-0.18038632,-0.00149669,0.00109258,0.00030196,-0.000358
 63,0.00000699,0.00005570,-0.00199493,-0.00029545,-0.00107951,-0.005198
 19,-0.00284930,-0.00267913,-0.00081111,0.00009849,0.00101736,0.0005243
 5,-0.00004502,-0.00006881,0.01954273,0.09699186,0.42815513\\0.00000045
 ,0.00000068,-0.00000053,0.00000015,0.00000157,0.00000008,-0.00000015,0
 .00000178,0.00000005,-0.00000048,0.00000206,0.00000150,-0.00000021,0.0
 0000306,0.00000115,-0.00000003,0.00000049,-0.00000009,0.00000014,0.000
 00089,-0.00000035,0.00000015,0.00000171,0.00000066,0.00000143,0.000001
 75,-0.00000037,-0.00000021,0.00000179,0.00000022,-0.00000020,0.0000025
 9,0.00000074,0.00000017,0.00000049,-0.00000062,-0.00000024,0.00000054,
 -0.00000075,-0.00000087,0.,-0.00000006,0.00000076,-0.00000036,-0.00000
 135,0.00000139,-0.00000089,-0.00000030,-0.00000108,0.00000036,-0.00000
 028,-0.00000155,-0.00000057,0.00000034,-0.00000026,-0.00000113,-0.0000
 0139,0.00000029,0.00000020,-0.00000102,0.00000026,-0.00000003,-0.00000
 102,0.00000022,0.00000011,-0.00000087,0.00000029,0.00000057,-0.0000008
 5,0.00000019,0.00000126,-0.00000059,0.00000024,-0.00000085,-0.00000093
 ,0.00000003,0.00000068,-0.00000070,0.00000015,0.00000154,-0.00000072,0
 .00000059,-0.00000176,-0.00000111,0.,-0.00000169,-0.00000094,0.0000004
 1,0.00000070,-0.00000071,0.00000008,0.00000040,-0.00000090,-0.00000031
 ,-0.00000013,0.00000084,-0.00000057,-0.00000008,0.00000097,-0.00000012
 ,-0.00000012,0.00000091,-0.00000005,-0.00000064,0.00000051,-0.00000002
 ,-0.00000130,0.00000071,-0.00000023,0.00000070,0.00000124,-0.00000018,
 0.00000076,0.00000092,-0.00000044,0.00000005,0.00000132,0.00000020,-0.
 00000023,0.00000076,-0.00000012,0.00000170,0.00000078,0.00000037,-0.00
 000140,0.00000092,-0.00000025,-0.00000153,0.00000066,-0.00000036,0.000
 00042,0.00000038,-0.00000032,-0.00000130,0.00000084,-0.00000053,-0.000
 00053,0.00000077,0.00000006,0.00000012,0.00000230,-0.00000129,-0.00000
 072,0.00000185,0.00000081,-0.00000002,-0.00000085,0.00000022,-0.000000
 30,-0.00000017,-0.00000006,-0.00000102,0.00000073,0.00000048,0.0000021
 5,0.00000314,0.00000017,-0.00000458,-0.00000234,-0.00000012,0.00000034
 ,0.00000069,-0.00000021,-0.00000054,0.00000178,0.00000050,-0.00000107,
 -0.00000089,0.00000031,-0.00000124,-0.00000122,0.00000025,0.00000042,-
 0.00000086,0.00000055,-0.00000035,-0.00000108,0.00000030,-0.00000046,-
 0.00000175,-0.00000042,0.00000010,-0.00000103,0.00000004,-0.00000014,-
 0.00000182,0.00000044,-0.00000087,-0.00000202,0.00000047,-0.00000012,-
 0.00000240,0.00000021,-0.00000001,-0.00000169,0.00000102,-0.00000116,-
 0.00000110,-0.00000001,-0.00000022,-0.00000085,-0.00000069,-0.00000157
 ,-0.00000062,-0.00000008,-0.00000145,-0.00000095,-0.00000003,0.0000000
 6,0.00000075,-0.00000002,-0.00000004,0.00000054,-0.00000023,-0.0000006
 2,0.00000079,-0.00000017,-0.00000038,0.00000082,0.00000011,0.00000011,
 0.00000057,-0.00000002,0.00000034,0.00000053,-0.00000020,0.00000016,0.
 00000072,-0.00000019,-0.00000028,0.00000096,-0.00000020,-0.00000134,0.
 00000101,-0.00000010,0.00000041,0.00000039,-0.00000005,0.00000101,0.00
 000037,-0.00000015,0.00000116,0.00000040,-0.00000002,-0.00000066,0.000
 00075,-0.00000032,-0.00000082,0.00000078,-0.00000054,-0.00000066,0.000
 00099\\\@


 IT WAS AN ACT OF DESPARATION. FOR SIX YEARS I HAD STRUGGLED WITH THE
 BLACKBODY THEORY. I KNEW THE PROBLEM WAS FUNDAMENTAL, AND I KNEW
 THE ANSWER. I HAD TO FIND A THEORETICAL EXPLANATION AT ANY COST,
 EXCEPT FOR THE INVIOLABLITY OF THE TWO LAWS OF THERMODYNAMICS.
   -- MAX PLANCK, 1931
 Job cpu time:       2 days 11 hours  0 minutes  9.1 seconds.
 Elapsed time:       0 days  1 hours  6 minutes 44.2 seconds.
 File lengths (MBytes):  RWF=   6012 Int=      0 D2E=      0 Chk=     88 Scr=      2
 Normal termination of Gaussian 16 at Wed Jul 12 17:53:50 2023.
