 Entering Gaussian System, Link 0=g16
 Input=MaDA-TS-1-energy-conf-1.com
 Output=MaDA-TS-1-energy-conf-1.log
 Initial command:
 /public/home/zhoujunsu/g16/l1.exe "/public/home/zhoujunsu/g16/scratch/Gau-417922.inp" -scrdir="/public/home/zhoujunsu/g16/scratch/"
 Entering Link 1 = /public/home/zhoujunsu/g16/l1.exe PID=    417923.
  
 Copyright (c) 1988,1990,1992,1993,1995,1998,2003,2009,2016,
            Gaussian, Inc.  All Rights Reserved.
  
 This is part of the Gaussian(R) 16 program.  It is based on
 the Gaussian(R) 09 system (copyright 2009, Gaussian, Inc.),
 the Gaussian(R) 03 system (copyright 2003, Gaussian, Inc.),
 the Gaussian(R) 98 system (copyright 1998, Gaussian, Inc.),
 the Gaussian(R) 94 system (copyright 1995, Gaussian, Inc.),
 the Gaussian 92(TM) system (copyright 1992, Gaussian, Inc.),
 the Gaussian 90(TM) system (copyright 1990, Gaussian, Inc.),
 the Gaussian 88(TM) system (copyright 1988, Gaussian, Inc.),
 the Gaussian 86(TM) system (copyright 1986, Carnegie Mellon
 University), and the Gaussian 82(TM) system (copyright 1983,
 Carnegie Mellon University). Gaussian is a federally registered
 trademark of Gaussian, Inc.
  
 This software contains proprietary and confidential information,
 including trade secrets, belonging to Gaussian, Inc.
  
 This software is provided under written license and may be
 used, copied, transmitted, or stored only in accord with that
 written license.
  
 The following legend is applicable only to US Government
 contracts under FAR:
  
                    RESTRICTED RIGHTS LEGEND
  
 Use, reproduction and disclosure by the US Government is
 subject to restrictions as set forth in subparagraphs (a)
 and (c) of the Commercial Computer Software - Restricted
 Rights clause in FAR 52.227-19.
  
 Gaussian, Inc.
 340 Quinnipiac St., Bldg. 40, Wallingford CT 06492
  
  
 ---------------------------------------------------------------
 Warning -- This program may not be used in any manner that
 competes with the business of Gaussian, Inc. or will provide
 assistance to any competitor of Gaussian, Inc.  The licensee
 of this program is prohibited from giving any competitor of
 Gaussian, Inc. access to this program.  By using this program,
 the user acknowledges that Gaussian, Inc. is engaged in the
 business of creating and licensing software in the field of
 computational chemistry and represents and warrants to the
 licensee that it is not a competitor of Gaussian, Inc. and that
 it will not use this program in any manner prohibited above.
 ---------------------------------------------------------------
  

 Cite this work as:
 Gaussian 16, Revision A.03,
 M. J. Frisch, G. W. Trucks, H. B. Schlegel, G. E. Scuseria, 
 M. A. Robb, J. R. Cheeseman, G. Scalmani, V. Barone, 
 G. A. Petersson, H. Nakatsuji, X. Li, M. Caricato, A. V. Marenich, 
 J. Bloino, B. G. Janesko, R. Gomperts, B. Mennucci, H. P. Hratchian, 
 J. V. Ortiz, A. F. Izmaylov, J. L. Sonnenberg, D. Williams-Young, 
 F. Ding, F. Lipparini, F. Egidi, J. Goings, B. Peng, A. Petrone, 
 T. Henderson, D. Ranasinghe, V. G. Zakrzewski, J. Gao, N. Rega, 
 G. Zheng, W. Liang, M. Hada, M. Ehara, K. Toyota, R. Fukuda, 
 J. Hasegawa, M. Ishida, T. Nakajima, Y. Honda, O. Kitao, H. Nakai, 
 T. Vreven, K. Throssell, J. A. Montgomery, Jr., J. E. Peralta, 
 F. Ogliaro, M. J. Bearpark, J. J. Heyd, E. N. Brothers, K. N. Kudin, 
 V. N. Staroverov, T. A. Keith, R. Kobayashi, J. Normand, 
 K. Raghavachari, A. P. Rendell, J. C. Burant, S. S. Iyengar, 
 J. Tomasi, M. Cossi, J. M. Millam, M. Klene, C. Adamo, R. Cammi, 
 J. W. Ochterski, R. L. Martin, K. Morokuma, O. Farkas, 
 J. B. Foresman, and D. J. Fox, Gaussian, Inc., Wallingford CT, 2016.
 
 ******************************************
 Gaussian 16:  ES64L-G16RevA.03 25-Dec-2016
                11-Jul-2023 
 ******************************************
 %mem=28gb
 %nproc=14
 Will use up to   14 processors via shared memory.
 %chk=MaDA-TS-1-conf-1.chk
 ----------------------------------------------------------------------
 # wb97xd/6-311++G(d,p) integral(ultrafinegrid) guess=read geom=check s
 crf=(cpcm,read,solvent=water)
 ----------------------------------------------------------------------
 1/29=2,38=1,40=2,172=1/1;
 2/12=2,40=1/2;
 3/5=4,6=6,7=1111,11=2,14=-4,25=1,30=1,70=2103,72=1,74=-58,75=-5,116=-2/1,2,3;
 4/5=1/1;
 5/5=2,38=6,53=1/2;
 6/7=2,8=2,9=2,10=2,28=1/1;
 99/5=1,9=1/99;
 ----------------------------------------------------------------------
 Candidate Structure: MaDA-TS-1, Conformer: 1, Single-point energies ca
 lculated with wB97X-D/6-311++G(d,p)
 ----------------------------------------------------------------------
 Structure from the checkpoint file:  "MaDA-TS-1-conf-1.chk"
 Charge =  0 Multiplicity = 1
 Redundant internal coordinates found in file.  (old form).
 C,0,7.6162032723,-1.7963292979,0.655837042
 C,0,7.1921634295,-3.030264109,0.1656760823
 C,0,5.8634690488,-3.2127408867,-0.221481644
 C,0,4.9736973449,-2.1527657575,-0.098968689
 C,0,5.358423218,-0.9085935568,0.4057139003
 C,0,6.7085254947,-0.7460582427,0.7640100971
 H,0,8.6551136339,-1.6677182542,0.9458058853
 H,0,5.5310882657,-4.1681649808,-0.6171242138
 H,0,3.9457189562,-2.2979862196,-0.4217121477
 O,0,8.1241483823,-4.0142736978,0.0831199301
 H,0,7.7149749264,-4.8153248398,-0.2700769061
 O,0,7.0909405587,0.4768960787,1.2181873853
 H,0,8.0355450517,0.4667872638,1.4208448644
 C,0,4.4120299929,0.2296364532,0.5262615576
 H,0,4.8188997444,1.1158552597,1.0018556525
 C,0,3.0545140018,-0.0066120373,0.8006124973
 H,0,2.6373568747,-1.0024668672,0.7275391075
 C,0,2.2372188517,1.0822968174,1.2307703402
 O,0,2.7153125178,2.2533613689,1.2440134427
 C,0,0.820009607,0.8709753567,1.6128872171
 C,0,0.2815426066,-0.3983341397,1.8667389445
 C,0,-0.0562541855,1.9795152804,1.6667377387
 C,0,-1.0547552812,-0.5779184269,2.15674031
 H,0,0.9280966912,-1.2690502953,1.8499860101
 C,0,-1.4291198055,1.8192769763,1.9204498128
 C,0,-1.9085596331,0.5303987151,2.1622946483
 H,0,-1.4660705555,-1.562689753,2.3482135853
 O,0,0.3924982502,3.2287137082,1.4552931387
 H,0,1.3814660339,3.1327204842,1.3407075521
 O,0,-3.2189249002,0.2733208253,2.4116096871
 H,0,-3.7225628214,1.0958389157,2.4562231893
 C,0,-2.0411084186,-1.2705870473,-1.1142225333
 C,0,-0.9164013862,-2.0895466444,-1.2527075386
 C,0,-1.903398874,0.1104659574,-1.217625777
 C,0,0.3278593716,-1.5123463141,-1.4584469775
 H,0,-1.0033925481,-3.1694575777,-1.1791532689
 C,0,-0.6490553468,0.6807445653,-1.406510569
 H,0,-2.7698257433,0.7529386955,-1.1196490424
 C,0,0.5107697294,-0.1099796886,-1.5387665192
 O,0,-0.5241532576,2.0262863735,-1.4667548986
 H,0,-1.305883715,2.432755648,-1.0494741181
 O,0,1.4450594261,-2.278975798,-1.5640186705
 H,0,1.2121846643,-3.2099831308,-1.4529362923
 C,0,1.868145387,0.3967602664,-1.6147267221
 H,0,2.6062314847,-0.39043386,-1.6931323429
 C,0,2.3096242787,1.6966151458,-1.6779079055
 H,0,1.5911036492,2.5057990683,-1.694065947
 C,0,3.6725159707,2.0317284811,-1.4943566076
 C,0,4.6421754336,1.0424150197,-1.3143860547
 H,0,4.5180031862,0.0889539358,-1.8165392607
 H,0,5.6798502201,1.3588638697,-1.2305656664
 C,0,4.0624048288,3.4781873428,-1.3439423814
 H,0,4.5815252651,3.835297268,-2.2418472645
 H,0,3.1925770701,4.1180705499,-1.1749437808
 H,0,4.7478677526,3.6015656007,-0.49926558
 C,0,-2.3495873178,3.020389486,1.8345797868
 H,0,-1.7680596064,3.9248222924,2.0139208581
 H,0,-3.1017396119,2.9924898984,2.636161714
 C,0,-3.05591974,3.0804280815,0.4994130069
 H,0,-3.8119494604,2.3087299846,0.345951348
 C,0,-2.857420465,3.9528669859,-0.5007401243
 C,0,-3.664298408,3.8599493462,-1.7726549065
 H,0,-3.0086449225,3.6816992048,-2.6344980246
 H,0,-4.4055153751,3.0562769811,-1.7322932493
 H,0,-4.1887043587,4.8039956996,-1.9644878738
 C,0,-1.8542946466,5.0783112009,-0.4712063666
 H,0,-2.3698275041,6.0438619825,-0.3973546108
 H,0,-1.1418523882,4.9936596941,0.3507734658
 H,0,-1.2842731698,5.0965929229,-1.4080183762
 C,0,-5.1836449597,-3.0417432883,-0.347967655
 C,0,-5.4984617076,-1.6783203838,-0.4172939148
 C,0,-6.7653973243,-1.1568600784,-0.2052420697
 C,0,-7.7641150869,-2.0794369704,0.0937882528
 C,0,-7.4880564161,-3.4603080158,0.168454081
 C,0,-6.2084233697,-3.9467209848,-0.0489463825
 C,0,-3.7733665655,-3.1217447163,-0.6232393403
 C,0,-3.3494067027,-1.8482991302,-0.8325807752
 H,0,-6.9771548304,-0.0955522529,-0.2621567873
 H,0,-8.2956521167,-4.1493791376,0.4011948258
 H,0,-6.0118761451,-5.0121641032,0.0140667705
 H,0,-3.1651177866,-4.0143232815,-0.6507594686
 O,0,-9.0131849534,-1.5876680209,0.3098050391
 H,0,-9.6148306167,-2.3134656913,0.5206109064
 O,0,-4.3912904454,-0.9545215738,-0.7154824286
 Recover connectivity data from disk.
                           ----------------------------
                           !    Current Parameters    !
                           ! (Angstroms and Degrees)  !
 --------------------------                            --------------------------
 ! Name  Definition              Value                                          !
 --------------------------------------------------------------------------------
 ! R1    R(1,2)                  1.3938                                         !
 ! R2    R(1,6)                  1.3924                                         !
 ! R3    R(1,7)                  1.0863                                         !
 ! R4    R(2,3)                  1.3959                                         !
 ! R5    R(2,10)                 1.3578                                         !
 ! R6    R(3,4)                  1.3893                                         !
 ! R7    R(3,8)                  1.0862                                         !
 ! R8    R(4,5)                  1.3967                                         !
 ! R9    R(4,9)                  1.0872                                         !
 ! R10   R(5,6)                  1.4063                                         !
 ! R11   R(5,14)                 1.4852                                         !
 ! R12   R(6,12)                 1.3595                                         !
 ! R13   R(10,11)                0.9664                                         !
 ! R14   R(12,13)                0.9662                                         !
 ! R15   R(14,15)                1.085                                          !
 ! R16   R(14,16)                1.405                                          !
 ! R17   R(14,49)                2.0252                                         !
 ! R18   R(16,17)                1.0822                                         !
 ! R19   R(16,18)                1.4278                                         !
 ! R20   R(18,19)                1.265                                          !
 ! R21   R(18,20)                1.483                                          !
 ! R22   R(20,21)                1.402                                          !
 ! R23   R(20,22)                1.4141                                         !
 ! R24   R(21,23)                1.3791                                         !
 ! R25   R(21,24)                1.0846                                         !
 ! R26   R(22,25)                1.4053                                         !
 ! R27   R(22,28)                1.3441                                         !
 ! R28   R(23,26)                1.3991                                         !
 ! R29   R(23,27)                1.0843                                         !
 ! R30   R(25,26)                1.3963                                         !
 ! R31   R(25,56)                1.5157                                         !
 ! R32   R(26,30)                1.3584                                         !
 ! R33   R(28,29)                1.0002                                         !
 ! R34   R(30,31)                0.9655                                         !
 ! R35   R(32,33)                1.3982                                         !
 ! R36   R(32,34)                1.3917                                         !
 ! R37   R(32,77)                1.4576                                         !
 ! R38   R(33,35)                1.387                                          !
 ! R39   R(33,36)                1.0859                                         !
 ! R40   R(34,37)                1.3908                                         !
 ! R41   R(34,38)                1.0831                                         !
 ! R42   R(35,39)                1.4165                                         !
 ! R43   R(35,42)                1.359                                          !
 ! R44   R(37,39)                1.4099                                         !
 ! R45   R(37,40)                1.3527                                         !
 ! R46   R(39,44)                1.4509                                         !
 ! R47   R(40,41)                0.9749                                         !
 ! R48   R(42,43)                0.9661                                         !
 ! R49   R(44,45)                1.0819                                         !
 ! R50   R(44,46)                1.3742                                         !
 ! R51   R(46,47)                1.0823                                         !
 ! R52   R(46,48)                1.4154                                         !
 ! R53   R(48,49)                1.3969                                         !
 ! R54   R(48,52)                1.5056                                         !
 ! R55   R(49,50)                1.0847                                         !
 ! R56   R(49,51)                1.0881                                         !
 ! R57   R(52,53)                1.0969                                         !
 ! R58   R(52,54)                1.093                                          !
 ! R59   R(52,55)                1.0948                                         !
 ! R60   R(56,57)                1.0901                                         !
 ! R61   R(56,58)                1.0996                                         !
 ! R62   R(56,59)                1.5117                                         !
 ! R63   R(59,60)                1.0912                                         !
 ! R64   R(59,61)                1.342                                          !
 ! R65   R(61,62)                1.5091                                         !
 ! R66   R(61,66)                1.5079                                         !
 ! R67   R(62,63)                1.0975                                         !
 ! R68   R(62,64)                1.094                                          !
 ! R69   R(62,65)                1.0968                                         !
 ! R70   R(66,67)                1.097                                          !
 ! R71   R(66,68)                1.0911                                         !
 ! R72   R(66,69)                1.0968                                         !
 ! R73   R(70,71)                1.401                                          !
 ! R74   R(70,75)                1.3995                                         !
 ! R75   R(70,76)                1.4391                                         !
 ! R76   R(71,72)                1.3864                                         !
 ! R77   R(71,84)                1.356                                          !
 ! R78   R(72,73)                1.3921                                         !
 ! R79   R(72,78)                1.0837                                         !
 ! R80   R(73,74)                1.4102                                         !
 ! R81   R(73,82)                1.3597                                         !
 ! R82   R(74,75)                1.3861                                         !
 ! R83   R(74,79)                1.0868                                         !
 ! R84   R(75,80)                1.0853                                         !
 ! R85   R(76,77)                1.3584                                         !
 ! R86   R(76,81)                1.0805                                         !
 ! R87   R(77,84)                1.3777                                         !
 ! R88   R(82,83)                0.966                                          !
 ! A1    A(2,1,6)              119.7878                                         !
 ! A2    A(2,1,7)              119.3188                                         !
 ! A3    A(6,1,7)              120.8931                                         !
 ! A4    A(1,2,3)              120.1884                                         !
 ! A5    A(1,2,10)             117.0096                                         !
 ! A6    A(3,2,10)             122.8012                                         !
 ! A7    A(2,3,4)              119.0384                                         !
 ! A8    A(2,3,8)              120.4819                                         !
 ! A9    A(4,3,8)              120.4791                                         !
 ! A10   A(3,4,5)              122.3498                                         !
 ! A11   A(3,4,9)              118.5198                                         !
 ! A12   A(5,4,9)              119.1249                                         !
 ! A13   A(4,5,6)              117.3539                                         !
 ! A14   A(4,5,14)             122.4466                                         !
 ! A15   A(6,5,14)             120.1667                                         !
 ! A16   A(1,6,5)              121.2578                                         !
 ! A17   A(1,6,12)             121.4092                                         !
 ! A18   A(5,6,12)             117.3329                                         !
 ! A19   A(2,10,11)            109.4098                                         !
 ! A20   A(6,12,13)            109.6145                                         !
 ! A21   A(5,14,15)            115.0004                                         !
 ! A22   A(5,14,16)            120.1776                                         !
 ! A23   A(5,14,49)             99.2876                                         !
 ! A24   A(15,14,16)           114.4627                                         !
 ! A25   A(15,14,49)            91.6029                                         !
 ! A26   A(16,14,49)           110.7787                                         !
 ! A27   A(14,16,17)           120.9319                                         !
 ! A28   A(14,16,18)           118.9246                                         !
 ! A29   A(17,16,18)           120.0988                                         !
 ! A30   A(16,18,19)           119.5268                                         !
 ! A31   A(16,18,20)           121.0627                                         !
 ! A32   A(19,18,20)           119.3681                                         !
 ! A33   A(18,20,21)           122.8691                                         !
 ! A34   A(18,20,22)           119.3605                                         !
 ! A35   A(21,20,22)           117.7008                                         !
 ! A36   A(20,21,23)           121.8779                                         !
 ! A37   A(20,21,24)           119.6735                                         !
 ! A38   A(23,21,24)           118.4436                                         !
 ! A39   A(20,22,25)           121.5248                                         !
 ! A40   A(20,22,28)           121.0447                                         !
 ! A41   A(25,22,28)           117.4224                                         !
 ! A42   A(21,23,26)           119.2742                                         !
 ! A43   A(21,23,27)           121.5314                                         !
 ! A44   A(26,23,27)           119.1626                                         !
 ! A45   A(22,25,26)           118.1629                                         !
 ! A46   A(22,25,56)           119.5181                                         !
 ! A47   A(26,25,56)           122.1942                                         !
 ! A48   A(23,26,25)           121.4007                                         !
 ! A49   A(23,26,30)           116.0713                                         !
 ! A50   A(25,26,30)           122.5277                                         !
 ! A51   A(22,28,29)           105.0075                                         !
 ! A52   A(26,30,31)           110.5144                                         !
 ! A53   A(33,32,34)           119.6228                                         !
 ! A54   A(33,32,77)           120.5968                                         !
 ! A55   A(34,32,77)           119.7656                                         !
 ! A56   A(32,33,35)           119.5106                                         !
 ! A57   A(32,33,36)           120.7544                                         !
 ! A58   A(35,33,36)           119.7211                                         !
 ! A59   A(32,34,37)           120.4125                                         !
 ! A60   A(32,34,38)           120.1825                                         !
 ! A61   A(37,34,38)           119.3761                                         !
 ! A62   A(33,35,39)           122.4289                                         !
 ! A63   A(33,35,42)           120.9465                                         !
 ! A64   A(39,35,42)           116.6093                                         !
 ! A65   A(34,37,39)           121.6471                                         !
 ! A66   A(34,37,40)           119.8155                                         !
 ! A67   A(39,37,40)           118.5373                                         !
 ! A68   A(35,39,37)           116.3388                                         !
 ! A69   A(35,39,44)           118.0051                                         !
 ! A70   A(37,39,44)           125.3544                                         !
 ! A71   A(37,40,41)           108.7616                                         !
 ! A72   A(35,42,43)           109.6651                                         !
 ! A73   A(39,44,45)           112.8241                                         !
 ! A74   A(39,44,46)           129.2957                                         !
 ! A75   A(45,44,46)           117.7562                                         !
 ! A76   A(44,46,47)           119.6441                                         !
 ! A77   A(44,46,48)           121.8238                                         !
 ! A78   A(47,46,48)           117.6568                                         !
 ! A79   A(46,48,49)           121.1585                                         !
 ! A80   A(46,48,52)           119.3242                                         !
 ! A81   A(49,48,52)           119.1937                                         !
 ! A82   A(14,49,48)           108.8102                                         !
 ! A83   A(14,49,50)            93.151                                          !
 ! A84   A(14,49,51)            98.9213                                         !
 ! A85   A(48,49,50)           118.9078                                         !
 ! A86   A(48,49,51)           117.7709                                         !
 ! A87   A(50,49,51)           113.6071                                         !
 ! A88   A(48,52,53)           110.7039                                         !
 ! A89   A(48,52,54)           111.827                                          !
 ! A90   A(48,52,55)           110.3335                                         !
 ! A91   A(53,52,54)           108.2159                                         !
 ! A92   A(53,52,55)           107.3712                                         !
 ! A93   A(54,52,55)           108.2405                                         !
 ! A94   A(25,56,57)           108.9166                                         !
 ! A95   A(25,56,58)           110.7327                                         !
 ! A96   A(25,56,59)           111.4242                                         !
 ! A97   A(57,56,58)           105.4281                                         !
 ! A98   A(57,56,59)           111.1993                                         !
 ! A99   A(58,56,59)           108.9816                                         !
 ! A100  A(56,59,60)           114.8263                                         !
 ! A101  A(56,59,61)           127.95                                           !
 ! A102  A(60,59,61)           117.2226                                         !
 ! A103  A(59,61,62)           120.5993                                         !
 ! A104  A(59,61,66)           124.6829                                         !
 ! A105  A(62,61,66)           114.7177                                         !
 ! A106  A(61,62,63)           110.6369                                         !
 ! A107  A(61,62,64)           112.1093                                         !
 ! A108  A(61,62,65)           110.49                                           !
 ! A109  A(63,62,64)           108.3257                                         !
 ! A110  A(63,62,65)           106.7433                                         !
 ! A111  A(64,62,65)           108.3486                                         !
 ! A112  A(61,66,67)           110.2186                                         !
 ! A113  A(61,66,68)           113.032                                          !
 ! A114  A(61,66,69)           109.966                                          !
 ! A115  A(67,66,68)           108.9309                                         !
 ! A116  A(67,66,69)           106.6825                                         !
 ! A117  A(68,66,69)           107.7839                                         !
 ! A118  A(71,70,75)           118.3808                                         !
 ! A119  A(71,70,76)           105.3573                                         !
 ! A120  A(75,70,76)           136.2612                                         !
 ! A121  A(70,71,72)           124.3206                                         !
 ! A122  A(70,71,84)           110.2961                                         !
 ! A123  A(72,71,84)           125.3831                                         !
 ! A124  A(71,72,73)           116.0522                                         !
 ! A125  A(71,72,78)           122.6079                                         !
 ! A126  A(73,72,78)           121.3394                                         !
 ! A127  A(72,73,74)           121.3238                                         !
 ! A128  A(72,73,82)           116.9677                                         !
 ! A129  A(74,73,82)           121.7085                                         !
 ! A130  A(73,74,75)           121.0673                                         !
 ! A131  A(73,74,79)           119.1251                                         !
 ! A132  A(75,74,79)           119.8076                                         !
 ! A133  A(70,75,74)           118.8547                                         !
 ! A134  A(70,75,80)           120.9731                                         !
 ! A135  A(74,75,80)           120.1722                                         !
 ! A136  A(70,76,77)           106.4521                                         !
 ! A137  A(70,76,81)           127.0464                                         !
 ! A138  A(77,76,81)           126.4996                                         !
 ! A139  A(32,77,76)           132.9573                                         !
 ! A140  A(32,77,84)           115.9807                                         !
 ! A141  A(76,77,84)           111.0418                                         !
 ! A142  A(73,82,83)           109.5772                                         !
 ! A143  A(71,84,77)           106.8513                                         !
 ! D1    D(6,1,2,3)              0.2771                                         !
 ! D2    D(6,1,2,10)           179.9525                                         !
 ! D3    D(7,1,2,3)           -179.53                                           !
 ! D4    D(7,1,2,10)             0.1454                                         !
 ! D5    D(2,1,6,5)              0.9545                                         !
 ! D6    D(2,1,6,12)          -178.9718                                         !
 ! D7    D(7,1,6,5)           -179.2415                                         !
 ! D8    D(7,1,6,12)             0.8322                                         !
 ! D9    D(1,2,3,4)             -0.5764                                         !
 ! D10   D(1,2,3,8)            179.141                                          !
 ! D11   D(10,2,3,4)           179.7677                                         !
 ! D12   D(10,2,3,8)            -0.515                                          !
 ! D13   D(1,2,10,11)         -179.8545                                         !
 ! D14   D(3,2,10,11)           -0.1883                                         !
 ! D15   D(2,3,4,5)             -0.3529                                         !
 ! D16   D(2,3,4,9)            178.7829                                         !
 ! D17   D(8,3,4,5)            179.9298                                         !
 ! D18   D(8,3,4,9)             -0.9344                                         !
 ! D19   D(3,4,5,6)              1.5207                                         !
 ! D20   D(3,4,5,14)           179.4381                                         !
 ! D21   D(9,4,5,6)           -177.6101                                         !
 ! D22   D(9,4,5,14)             0.3074                                         !
 ! D23   D(4,5,6,1)             -1.8144                                         !
 ! D24   D(4,5,6,12)           178.1148                                         !
 ! D25   D(14,5,6,1)          -179.7816                                         !
 ! D26   D(14,5,6,12)            0.1475                                         !
 ! D27   D(4,5,14,15)          175.6291                                         !
 ! D28   D(4,5,14,16)           32.5275                                         !
 ! D29   D(4,5,14,49)          -88.1978                                         !
 ! D30   D(6,5,14,15)           -6.5104                                         !
 ! D31   D(6,5,14,16)         -149.612                                          !
 ! D32   D(6,5,14,49)           89.6627                                         !
 ! D33   D(1,6,12,13)            0.5722                                         !
 ! D34   D(5,6,12,13)         -179.3569                                         !
 ! D35   D(5,14,16,17)         -12.6608                                         !
 ! D36   D(5,14,16,18)         164.9099                                         !
 ! D37   D(15,14,16,17)       -155.9477                                         !
 ! D38   D(15,14,16,18)         21.623                                          !
 ! D39   D(49,14,16,17)        102.1941                                         !
 ! D40   D(49,14,16,18)        -80.2353                                         !
 ! D41   D(5,14,49,48)         170.9681                                         !
 ! D42   D(5,14,49,50)          48.949                                          !
 ! D43   D(5,14,49,51)         -65.5464                                         !
 ! D44   D(15,14,49,48)        -73.375                                          !
 ! D45   D(15,14,49,50)        164.606                                          !
 ! D46   D(15,14,49,51)         50.1105                                         !
 ! D47   D(16,14,49,48)         43.6063                                         !
 ! D48   D(16,14,49,50)        -78.4127                                         !
 ! D49   D(16,14,49,51)        167.0918                                         !
 ! D50   D(14,16,18,19)          6.1699                                         !
 ! D51   D(14,16,18,20)       -176.2148                                         !
 ! D52   D(17,16,18,19)       -176.2387                                         !
 ! D53   D(17,16,18,20)          1.3765                                         !
 ! D54   D(16,18,20,21)         14.6447                                         !
 ! D55   D(16,18,20,22)       -162.2511                                         !
 ! D56   D(19,18,20,21)       -167.7362                                         !
 ! D57   D(19,18,20,22)         15.3679                                         !
 ! D58   D(18,20,21,23)       -176.7643                                         !
 ! D59   D(18,20,21,24)          4.0625                                         !
 ! D60   D(22,20,21,23)          0.1801                                         !
 ! D61   D(22,20,21,24)       -178.9931                                         !
 ! D62   D(18,20,22,25)        174.9422                                         !
 ! D63   D(18,20,22,28)         -3.9995                                         !
 ! D64   D(21,20,22,25)         -2.1132                                         !
 ! D65   D(21,20,22,28)        178.9451                                         !
 ! D66   D(20,21,23,26)          1.8185                                         !
 ! D67   D(20,21,23,27)        179.7479                                         !
 ! D68   D(24,21,23,26)       -178.9986                                         !
 ! D69   D(24,21,23,27)         -1.0691                                         !
 ! D70   D(20,22,25,26)          1.9728                                         !
 ! D71   D(20,22,25,56)       -174.0567                                         !
 ! D72   D(28,22,25,26)       -179.0487                                         !
 ! D73   D(28,22,25,56)          4.9217                                         !
 ! D74   D(20,22,28,29)         -3.6606                                         !
 ! D75   D(25,22,28,29)        177.3558                                         !
 ! D76   D(21,23,26,25)         -1.9678                                         !
 ! D77   D(21,23,26,30)        177.8583                                         !
 ! D78   D(27,23,26,25)       -179.9468                                         !
 ! D79   D(27,23,26,30)         -0.1207                                         !
 ! D80   D(22,25,26,23)          0.0982                                         !
 ! D81   D(22,25,26,30)       -179.7166                                         !
 ! D82   D(56,25,26,23)        176.0152                                         !
 ! D83   D(56,25,26,30)         -3.7996                                         !
 ! D84   D(22,25,56,57)        -25.0477                                         !
 ! D85   D(22,25,56,58)       -140.5411                                         !
 ! D86   D(22,25,56,59)         97.9839                                         !
 ! D87   D(26,25,56,57)        159.089                                          !
 ! D88   D(26,25,56,58)         43.5955                                         !
 ! D89   D(26,25,56,59)        -77.8794                                         !
 ! D90   D(23,26,30,31)        176.1445                                         !
 ! D91   D(25,26,30,31)         -4.0315                                         !
 ! D92   D(34,32,33,35)          1.5909                                         !
 ! D93   D(34,32,33,36)       -179.7657                                         !
 ! D94   D(77,32,33,35)       -177.0037                                         !
 ! D95   D(77,32,33,36)          1.6397                                         !
 ! D96   D(33,32,34,37)         -2.4541                                         !
 ! D97   D(33,32,34,38)        179.516                                          !
 ! D98   D(77,32,34,37)        176.1523                                         !
 ! D99   D(77,32,34,38)         -1.8776                                         !
 ! D100  D(33,32,77,76)          1.8385                                         !
 ! D101  D(33,32,77,84)       -179.9753                                         !
 ! D102  D(34,32,77,76)       -176.7541                                         !
 ! D103  D(34,32,77,84)          1.4321                                         !
 ! D104  D(32,33,35,39)         -0.1615                                         !
 ! D105  D(32,33,35,42)        178.3648                                         !
 ! D106  D(36,33,35,39)       -178.8191                                         !
 ! D107  D(36,33,35,42)         -0.2928                                         !
 ! D108  D(32,34,37,39)          1.9036                                         !
 ! D109  D(32,34,37,40)       -178.0955                                         !
 ! D110  D(38,34,37,39)        179.9493                                         !
 ! D111  D(38,34,37,40)         -0.0498                                         !
 ! D112  D(33,35,39,37)         -0.4043                                         !
 ! D113  D(33,35,39,44)        173.6281                                         !
 ! D114  D(42,35,39,37)       -178.9907                                         !
 ! D115  D(42,35,39,44)         -4.9583                                         !
 ! D116  D(33,35,42,43)         -1.3626                                         !
 ! D117  D(39,35,42,43)        177.2462                                         !
 ! D118  D(34,37,39,35)         -0.4623                                         !
 ! D119  D(34,37,39,44)       -174.0001                                         !
 ! D120  D(40,37,39,35)        179.5368                                         !
 ! D121  D(40,37,39,44)          5.999                                          !
 ! D122  D(34,37,40,41)         20.3453                                         !
 ! D123  D(39,37,40,41)       -159.6538                                         !
 ! D124  D(35,39,44,45)          5.3362                                         !
 ! D125  D(35,39,44,46)       -178.8627                                         !
 ! D126  D(37,39,44,45)        178.7764                                         !
 ! D127  D(37,39,44,46)         -5.4225                                         !
 ! D128  D(39,44,46,47)         -1.2071                                         !
 ! D129  D(39,44,46,48)        167.8294                                         !
 ! D130  D(45,44,46,47)        174.4193                                         !
 ! D131  D(45,44,46,48)        -16.5443                                         !
 ! D132  D(44,46,48,49)          3.6285                                         !
 ! D133  D(44,46,48,52)       -169.7863                                         !
 ! D134  D(47,46,48,49)        172.8733                                         !
 ! D135  D(47,46,48,52)         -0.5415                                         !
 ! D136  D(46,48,49,14)        -71.7698                                         !
 ! D137  D(46,48,49,50)         32.9701                                         !
 ! D138  D(46,48,49,51)        176.8518                                         !
 ! D139  D(52,48,49,14)        101.6535                                         !
 ! D140  D(52,48,49,50)       -153.6066                                         !
 ! D141  D(52,48,49,51)         -9.725                                          !
 ! D142  D(46,48,52,53)       -108.1065                                         !
 ! D143  D(46,48,52,54)         12.6481                                         !
 ! D144  D(46,48,52,55)        133.1793                                         !
 ! D145  D(49,48,52,53)         78.3481                                         !
 ! D146  D(49,48,52,54)       -160.8973                                         !
 ! D147  D(49,48,52,55)        -40.3661                                         !
 ! D148  D(25,56,59,60)         70.2809                                         !
 ! D149  D(25,56,59,61)       -109.328                                          !
 ! D150  D(57,56,59,60)       -168.0022                                         !
 ! D151  D(57,56,59,61)         12.3889                                         !
 ! D152  D(58,56,59,60)        -52.2069                                         !
 ! D153  D(58,56,59,61)        128.1842                                         !
 ! D154  D(56,59,61,62)       -179.9387                                         !
 ! D155  D(56,59,61,66)         -0.1049                                         !
 ! D156  D(60,59,61,62)          0.4605                                         !
 ! D157  D(60,59,61,66)       -179.7057                                         !
 ! D158  D(59,61,62,63)       -118.8481                                         !
 ! D159  D(59,61,62,64)          2.1922                                         !
 ! D160  D(59,61,62,65)        123.159                                          !
 ! D161  D(66,61,62,63)         61.3023                                         !
 ! D162  D(66,61,62,64)       -177.6575                                         !
 ! D163  D(66,61,62,65)        -56.6907                                         !
 ! D164  D(59,61,66,67)       -109.364                                          !
 ! D165  D(59,61,66,68)         12.7938                                         !
 ! D166  D(59,61,66,69)        133.2951                                         !
 ! D167  D(62,61,66,67)         70.4785                                         !
 ! D168  D(62,61,66,68)       -167.3636                                         !
 ! D169  D(62,61,66,69)        -46.8623                                         !
 ! D170  D(75,70,71,72)          0.1681                                         !
 ! D171  D(75,70,71,84)       -179.9973                                         !
 ! D172  D(76,70,71,72)       -179.5871                                         !
 ! D173  D(76,70,71,84)          0.2476                                         !
 ! D174  D(71,70,75,74)         -0.1265                                         !
 ! D175  D(71,70,75,80)        179.9216                                         !
 ! D176  D(76,70,75,74)        179.532                                          !
 ! D177  D(76,70,75,80)         -0.4199                                         !
 ! D178  D(71,70,76,77)         -0.0208                                         !
 ! D179  D(71,70,76,81)        179.4937                                         !
 ! D180  D(75,70,76,77)       -179.7093                                         !
 ! D181  D(75,70,76,81)         -0.1947                                         !
 ! D182  D(70,71,72,73)         -0.0007                                         !
 ! D183  D(70,71,72,78)        179.7567                                         !
 ! D184  D(84,71,72,73)       -179.8105                                         !
 ! D185  D(84,71,72,78)         -0.0531                                         !
 ! D186  D(70,71,84,77)         -0.3744                                         !
 ! D187  D(72,71,84,77)        179.4581                                         !
 ! D188  D(71,72,73,74)         -0.2056                                         !
 ! D189  D(71,72,73,82)        179.7813                                         !
 ! D190  D(78,72,73,74)       -179.9663                                         !
 ! D191  D(78,72,73,82)          0.0206                                         !
 ! D192  D(72,73,74,75)          0.2484                                         !
 ! D193  D(72,73,74,79)       -179.7891                                         !
 ! D194  D(82,73,74,75)       -179.7379                                         !
 ! D195  D(82,73,74,79)          0.2247                                         !
 ! D196  D(72,73,82,83)       -179.1203                                         !
 ! D197  D(74,73,82,83)          0.8665                                         !
 ! D198  D(73,74,75,70)         -0.0721                                         !
 ! D199  D(73,74,75,80)        179.8802                                         !
 ! D200  D(79,74,75,70)        179.9655                                         !
 ! D201  D(79,74,75,80)         -0.0821                                         !
 ! D202  D(70,76,77,32)        178.0429                                         !
 ! D203  D(70,76,77,84)         -0.2102                                         !
 ! D204  D(81,76,77,32)         -1.4751                                         !
 ! D205  D(81,76,77,84)       -179.7281                                         !
 ! D206  D(32,77,84,71)       -178.213                                          !
 ! D207  D(76,77,84,71)          0.3648                                         !
 --------------------------------------------------------------------------------
 Stoichiometry    C39H36O9
 Framework group  C1[X(C39H36O9)]
 Deg. of freedom   246
 Full point group                 C1      NOp   1
 Largest Abelian subgroup         C1      NOp   1
 Largest concise Abelian subgroup C1      NOp   1
                         Standard orientation:                         
 ---------------------------------------------------------------------
 Center     Atomic      Atomic             Coordinates (Angstroms)
 Number     Number       Type             X           Y           Z
 ---------------------------------------------------------------------
      1          6           0        7.593290   -1.882525    0.655581
      2          6           0        7.146951   -3.126640    0.213290
      3          6           0        5.812565   -3.302697   -0.156893
      4          6           0        4.939685   -2.225656   -0.065708
      5          6           0        5.346988   -0.970196    0.391028
      6          6           0        6.702246   -0.815423    0.732921
      7          1           0        8.636337   -1.759379    0.932790
      8          1           0        5.462786   -4.266519   -0.515429
      9          1           0        3.907053   -2.366737   -0.375157
     10          8           0        8.063494   -4.126983    0.158984
     11          1           0        7.639576   -4.933866   -0.162089
     12          8           0        7.106509    0.417063    1.139966
     13          1           0        8.052486    0.399899    1.335624
     14          6           0        4.418643    0.185828    0.477874
     15          1           0        4.842525    1.082229    0.918222
     16          6           0        3.060056   -0.019855    0.770905
     17          1           0        2.627553   -1.011251    0.736821
     18          6           0        2.262591    1.096007    1.167935
     19          8           0        2.758138    2.259416    1.135473
     20          6           0        0.845573    0.919992    1.568221
     21          6           0        0.290388   -0.331117    1.871586
     22          6           0       -0.013641    2.042900    1.588943
     23          6           0       -1.046013   -0.479940    2.178060
     24          1           0        0.923765   -1.211572    1.881156
     25          6           0       -1.386614    1.912663    1.858738
     26          6           0       -1.883169    0.640676    2.150355
     27          1           0       -1.470345   -1.450885    2.407902
     28          8           0        0.451891    3.276789    1.329364
     29          1           0        1.438350    3.161783    1.210737
     30          8           0       -3.195127    0.412569    2.418754
     31          1           0       -3.686097    1.243694    2.437663
     32          6           0       -2.069305   -1.274172   -1.058288
     33          6           0       -0.958071   -2.114511   -1.175884
     34          6           0       -1.911926    0.100052   -1.212252
     35          6           0        0.292909   -1.563962   -1.411723
     36          1           0       -1.060505   -3.189656   -1.062947
     37          6           0       -0.650830    0.644134   -1.431077
     38          1           0       -2.767873    0.758674   -1.130778
     39          6           0        0.495987   -0.168300   -1.543730
     40          8           0       -0.506432    1.984612   -1.540538
     41          1           0       -1.278590    2.417550   -1.132150
     42          8           0        1.397684   -2.350719   -1.498249
     43          1           0        1.151909   -3.273520   -1.352038
     44          6           0        1.860080    0.314771   -1.648213
     45          1           0        2.585713   -0.485818   -1.703952
     46          6           0        2.320306    1.604694   -1.761390
     47          1           0        1.613789    2.423576   -1.801090
     48          6           0        3.689487    1.925469   -1.600418
     49          6           0        4.645770    0.928648   -1.392471
     50          1           0        4.503327   -0.040178   -1.859109
     51          1           0        5.688687    1.232133   -1.328005
     52          6           0        4.102059    3.370309   -1.505012
     53          1           0        4.619064    3.687157   -2.419103
     54          1           0        3.243255    4.028937   -1.352445
     55          1           0        4.796174    3.513429   -0.670577
     56          6           0       -2.289792    3.123744    1.736849
     57          1           0       -1.693432    4.025099    1.879153
     58          1           0       -3.035688    3.135943    2.544646
     59          6           0       -3.006062    3.146670    0.405829
     60          1           0       -3.774714    2.381520    0.285957
     61          6           0       -2.802807    3.979657   -0.626487
     62          6           0       -3.621364    3.853528   -1.888037
     63          1           0       -2.975512    3.634642   -2.747916
     64          1           0       -4.374094    3.063139   -1.813183
     65          1           0       -4.133228    4.797945   -2.109619
     66          6           0       -1.782849    5.090108   -0.645048
     67          1           0       -2.283346    6.065384   -0.601964
     68          1           0       -1.065039    5.024134    0.173967
     69          1           0       -1.220308    5.066219   -1.586245
     70          6           0       -5.231451   -2.968955   -0.204931
     71          6           0       -5.526517   -1.604272   -0.320746
     72          6           0       -6.783780   -1.056420   -0.117866
     73          6           0       -7.793623   -1.952467    0.221721
     74          6           0       -7.537526   -3.333807    0.343796
     75          6           0       -6.267090   -3.847022    0.134215
     76          6           0       -3.824819   -3.080115   -0.487932
     77          6           0       -3.383699   -1.821546   -0.746090
     78          1           0       -6.980192    0.005259   -0.211221
     79          1           0       -8.353346   -4.001793    0.607294
     80          1           0       -6.085897   -4.912384    0.233930
     81          1           0       -3.230155   -3.982221   -0.488045
     82          8           0       -9.033432   -1.434413    0.429493
     83          1           0       -9.644058   -2.143004    0.670814
     84          8           0       -4.411184   -0.908466   -0.653186
 ---------------------------------------------------------------------
 Rotational constants (GHZ):           0.1121509           0.0369364           0.0312153
 Standard basis: 6-311++G(d,p) (5D, 7F)
 There are  1356 symmetry adapted cartesian basis functions of A   symmetry.
 There are  1308 symmetry adapted basis functions of A   symmetry.
  1308 basis functions,  2052 primitive gaussians,  1356 cartesian basis functions
   171 alpha electrons      171 beta electrons
       nuclear repulsion energy      6207.2089841365 Hartrees.
 NAtoms=   84 NActive=   84 NUniq=   84 SFac= 1.00D+00 NAtFMM=   60 NAOKFM=T Big=T
 Integral buffers will be    131072 words long.
 Raffenetti 2 integral format.
 Two-electron integral symmetry is turned on.
 Nuclear repulsion after empirical dispersion term =     6207.1193720316 Hartrees.
 Using the following non-standard input for PCM:
 --- end of non-standard input.
 ------------------------------------------------------------------------------
 Polarizable Continuum Model (PCM)
 =================================
 Model                : C-PCM.
 Atomic radii         : UFF (Universal Force Field).
 Polarization charges : Total charges.
 Charge compensation  : None.
 Solution method      : On-the-fly selection.
 Cavity type          : Scaled VdW (van der Waals Surface) (Alpha=1.100).
 Cavity algorithm     : GePol (No added spheres)
                        Default sphere list used, NSphG=   84.
                        Lebedev-Laikov grids with approx.  5.0 points / Ang**2.
                        Smoothing algorithm: York/Karplus (Gamma=1.0000).
                        Polarization charges: spherical gaussians, with
                                              point-specific exponents (IZeta= 3).
                        Self-potential: point-specific (ISelfS= 7).
                        Self-field    : sphere-specific E.n sum rule (ISelfD= 2).
 Solvent              : Water, Eps=  78.355300 Eps(inf)=   1.777849
 ------------------------------------------------------------------------------
 One-electron integrals computed using PRISM.
 NBasis=  1308 RedAO= T EigKep=  1.03D-06  NBF=  1308
 NBsUse=  1288 1.00D-06 EigRej=  7.08D-07 NBFU=  1288
 Initial guess from the checkpoint file:  "MaDA-TS-1-conf-1.chk"
 B after Tr=    -0.000000   -0.000000    0.000000
         Rot=    1.000000    0.000000   -0.000000   -0.000000 Ang=   0.00 deg.
 Requested convergence on RMS density matrix=1.00D-08 within 128 cycles.
 Requested convergence on MAX density matrix=1.00D-06.
 Requested convergence on             energy=1.00D-06.
 No special actions if energy rises.
 Inv3:  Mode=1 IEnd=    83888832.
 Iteration    1 A*A^-1 deviation from unit magnitude is 3.77D-15 for   3192.
 Iteration    1 A*A^-1 deviation from orthogonality  is 2.55D-15 for   2963   2119.
 Iteration    1 A^-1*A deviation from unit magnitude is 3.77D-15 for   3192.
 Iteration    1 A^-1*A deviation from orthogonality  is 2.23D-15 for   4276   2647.
 Error on total polarization charges =  0.02351
 SCF Done:  E(RwB97XD) =  -2184.70061716     A.U. after   17 cycles
            NFock= 17  Conv=0.31D-08     -V/T= 2.0041

 **********************************************************************

            Population analysis using the SCF density.

 **********************************************************************

 Orbital symmetries:
       Occupied  (A) (A) (A) (A) (A) (A) (A) (A) (A) (A) (A) (A)
                 (A) (A) (A) (A) (A) (A) (A) (A) (A) (A) (A) (A)
                 (A) (A) (A) (A) (A) (A) (A) (A) (A) (A) (A) (A)
                 (A) (A) (A) (A) (A) (A) (A) (A) (A) (A) (A) (A)
                 (A) (A) (A) (A) (A) (A) (A) (A) (A) (A) (A) (A)
                 (A) (A) (A) (A) (A) (A) (A) (A) (A) (A) (A) (A)
                 (A) (A) (A) (A) (A) (A) (A) (A) (A) (A) (A) (A)
                 (A) (A) (A) (A) (A) (A) (A) (A) (A) (A) (A) (A)
                 (A) (A) (A) (A) (A) (A) (A) (A) (A) (A) (A) (A)
                 (A) (A) (A) (A) (A) (A) (A) (A) (A) (A) (A) (A)
                 (A) (A) (A) (A) (A) (A) (A) (A) (A) (A) (A) (A)
                 (A) (A) (A) (A) (A) (A) (A) (A) (A) (A) (A) (A)
                 (A) (A) (A) (A) (A) (A) (A) (A) (A) (A) (A) (A)
                 (A) (A) (A) (A) (A) (A) (A) (A) (A) (A) (A) (A)
                 (A) (A) (A)
       Virtual   (A) (A) (A) (A) (A) (A) (A) (A) (A) (A) (A) (A)
                 (A) (A) (A) (A) (A) (A) (A) (A) (A) (A) (A) (A)
                 (A) (A) (A) (A) (A) (A) (A) (A) (A) (A) (A) (A)
                 (A) (A) (A) (A) (A) (A) (A) (A) (A) (A) (A) (A)
                 (A) (A) (A) (A) (A) (A) (A) (A) (A) (A) (A) (A)
                 (A) (A) (A) (A) (A) (A) (A) (A) (A) (A) (A) (A)
                 (A) (A) (A) (A) (A) (A) (A) (A) (A) (A) (A) (A)
                 (A) (A) (A) (A) (A) (A) (A) (A) (A) (A) (A) (A)
                 (A) (A) (A) (A) (A) (A) (A) (A) (A) (A) (A) (A)
                 (A) (A) (A) (A) (A) (A) (A) (A) (A) (A) (A) (A)
                 (A) (A) (A) (A) (A) (A) (A) (A) (A) (A) (A) (A)
                 (A) (A) (A) (A) (A) (A) (A) (A) (A) (A) (A) (A)
                 (A) (A) (A) (A) (A) (A) (A) (A) (A) (A) (A) (A)
                 (A) (A) (A) (A) (A) (A) (A) (A) (A) (A) (A) (A)
                 (A) (A) (A) (A) (A) (A) (A) (A) (A) (A) (A) (A)
                 (A) (A) (A) (A) (A) (A) (A) (A) (A) (A) (A) (A)
                 (A) (A) (A) (A) (A) (A) (A) (A) (A) (A) (A) (A)
                 (A) (A) (A) (A) (A) (A) (A) (A) (A) (A) (A) (A)
                 (A) (A) (A) (A) (A) (A) (A) (A) (A) (A) (A) (A)
                 (A) (A) (A) (A) (A) (A) (A) (A) (A) (A) (A) (A)
                 (A) (A) (A) (A) (A) (A) (A) (A) (A) (A) (A) (A)
                 (A) (A) (A) (A) (A) (A) (A) (A) (A) (A) (A) (A)
                 (A) (A) (A) (A) (A) (A) (A) (A) (A) (A) (A) (A)
                 (A) (A) (A) (A) (A) (A) (A) (A) (A) (A) (A) (A)
                 (A) (A) (A) (A) (A) (A) (A) (A) (A) (A) (A) (A)
                 (A) (A) (A) (A) (A) (A) (A) (A) (A) (A) (A) (A)
                 (A) (A) (A) (A) (A) (A) (A) (A) (A) (A) (A) (A)
                 (A) (A) (A) (A) (A) (A) (A) (A) (A) (A) (A) (A)
                 (A) (A) (A) (A) (A) (A) (A) (A) (A) (A) (A) (A)
                 (A) (A) (A) (A) (A) (A) (A) (A) (A) (A) (A) (A)
                 (A) (A) (A) (A) (A) (A) (A) (A) (A) (A) (A) (A)
                 (A) (A) (A) (A) (A) (A) (A) (A) (A) (A) (A) (A)
                 (A) (A) (A) (A) (A) (A) (A) (A) (A) (A) (A) (A)
                 (A) (A) (A) (A) (A) (A) (A) (A) (A) (A) (A) (A)
                 (A) (A) (A) (A) (A) (A) (A) (A) (A) (A) (A) (A)
                 (A) (A) (A) (A) (A) (A) (A) (A) (A) (A) (A) (A)
                 (A) (A) (A) (A) (A) (A) (A) (A) (A) (A) (A) (A)
                 (A) (A) (A) (A) (A) (A) (A) (A) (A) (A) (A) (A)
                 (A) (A) (A) (A) (A) (A) (A) (A) (A) (A) (A) (A)
                 (A) (A) (A) (A) (A) (A) (A) (A) (A) (A) (A) (A)
                 (A) (A) (A) (A) (A) (A) (A) (A) (A) (A) (A) (A)
                 (A) (A) (A) (A) (A) (A) (A) (A) (A) (A) (A) (A)
                 (A) (A) (A) (A) (A) (A) (A) (A) (A) (A) (A) (A)
                 (A) (A) (A) (A) (A) (A) (A) (A) (A) (A) (A) (A)
                 (A) (A) (A) (A) (A) (A) (A) (A) (A) (A) (A) (A)
                 (A) (A) (A) (A) (A) (A) (A) (A) (A) (A) (A) (A)
                 (A) (A) (A) (A) (A) (A) (A) (A) (A) (A) (A) (A)
                 (A) (A) (A) (A) (A) (A) (A) (A) (A) (A) (A) (A)
                 (A) (A) (A) (A) (A) (A) (A) (A) (A) (A) (A) (A)
                 (A) (A) (A) (A) (A) (A) (A) (A) (A) (A) (A) (A)
                 (A) (A) (A) (A) (A) (A) (A) (A) (A) (A) (A) (A)
                 (A) (A) (A) (A) (A) (A) (A) (A) (A) (A) (A) (A)
                 (A) (A) (A) (A) (A) (A) (A) (A) (A) (A) (A) (A)
                 (A) (A) (A) (A) (A) (A) (A) (A) (A) (A) (A) (A)
                 (A) (A) (A) (A) (A) (A) (A) (A) (A) (A) (A) (A)
                 (A) (A) (A) (A) (A) (A) (A) (A) (A) (A) (A) (A)
                 (A) (A) (A) (A) (A) (A) (A) (A) (A) (A) (A) (A)
                 (A) (A) (A) (A) (A) (A) (A) (A) (A) (A) (A) (A)
                 (A) (A) (A) (A) (A) (A) (A) (A) (A) (A) (A) (A)
                 (A) (A) (A) (A) (A) (A) (A) (A) (A) (A) (A) (A)
                 (A) (A) (A) (A) (A) (A) (A) (A) (A) (A) (A) (A)
                 (A) (A) (A) (A) (A) (A) (A) (A) (A) (A) (A) (A)
                 (A) (A) (A) (A) (A) (A) (A) (A) (A) (A) (A) (A)
                 (A) (A) (A) (A) (A) (A) (A) (A) (A) (A) (A) (A)
                 (A) (A) (A) (A) (A) (A) (A) (A) (A) (A) (A) (A)
                 (A) (A) (A) (A) (A) (A) (A) (A) (A) (A) (A) (A)
                 (A) (A) (A) (A) (A) (A) (A) (A) (A) (A) (A) (A)
                 (A) (A) (A) (A) (A) (A) (A) (A) (A) (A) (A) (A)
                 (A) (A) (A) (A) (A) (A) (A) (A) (A) (A) (A) (A)
                 (A) (A) (A) (A) (A) (A) (A) (A) (A) (A) (A) (A)
                 (A) (A) (A) (A) (A) (A) (A) (A) (A) (A) (A) (A)
                 (A) (A) (A) (A) (A) (A) (A) (A) (A) (A) (A) (A)
                 (A) (A) (A) (A) (A) (A) (A) (A) (A) (A) (A) (A)
                 (A) (A) (A) (A) (A) (A) (A) (A) (A) (A) (A) (A)
                 (A) (A) (A) (A) (A) (A) (A) (A) (A) (A) (A) (A)
                 (A) (A) (A) (A) (A) (A) (A) (A) (A) (A) (A) (A)
                 (A) (A) (A) (A) (A) (A) (A) (A) (A) (A) (A) (A)
                 (A) (A) (A) (A) (A) (A) (A) (A) (A) (A) (A) (A)
                 (A) (A) (A) (A) (A) (A) (A) (A) (A) (A) (A) (A)
                 (A) (A) (A) (A) (A) (A) (A) (A) (A) (A) (A) (A)
                 (A) (A) (A) (A) (A) (A) (A) (A) (A) (A) (A) (A)
                 (A) (A) (A) (A) (A) (A) (A) (A) (A) (A) (A) (A)
                 (A) (A) (A) (A) (A) (A) (A) (A) (A) (A) (A) (A)
                 (A) (A) (A) (A) (A) (A) (A) (A) (A) (A) (A) (A)
                 (A) (A) (A) (A) (A) (A) (A) (A) (A) (A) (A) (A)
                 (A) (A) (A) (A) (A) (A) (A) (A) (A) (A) (A) (A)
                 (A) (A) (A) (A) (A) (A) (A) (A) (A) (A) (A) (A)
                 (A) (A) (A) (A) (A) (A) (A) (A) (A) (A) (A) (A)
                 (A) (A) (A) (A) (A) (A) (A) (A) (A) (A) (A) (A)
                 (A) (A) (A) (A) (A) (A) (A) (A) (A) (A) (A) (A)
                 (A) (A) (A) (A) (A) (A) (A) (A) (A) (A) (A) (A)
                 (A) (A) (A) (A) (A) (A) (A) (A) (A) (A) (A) (A)
                 (A) (A) (A) (A) (A) (A) (A) (A) (A) (A) (A) (A)
                 (A)
 The electronic state is 1-A.
 Alpha  occ. eigenvalues --  -19.32294 -19.29454 -19.29082 -19.29042 -19.29006
 Alpha  occ. eigenvalues --  -19.28917 -19.28462 -19.26450 -19.22358 -10.36963
 Alpha  occ. eigenvalues --  -10.36723 -10.36601 -10.36557 -10.36484 -10.36409
 Alpha  occ. eigenvalues --  -10.36123 -10.36110 -10.35984 -10.35778 -10.32430
 Alpha  occ. eigenvalues --  -10.31806 -10.31296 -10.31131 -10.30637 -10.30613
 Alpha  occ. eigenvalues --  -10.30594 -10.30221 -10.30107 -10.29980 -10.29947
 Alpha  occ. eigenvalues --  -10.29935 -10.29898 -10.29765 -10.29699 -10.29642
 Alpha  occ. eigenvalues --  -10.29401 -10.29270 -10.29244 -10.29197 -10.29139
 Alpha  occ. eigenvalues --  -10.29037 -10.28986 -10.28522 -10.28180 -10.28022
 Alpha  occ. eigenvalues --  -10.28005 -10.27781 -10.27769  -1.23086  -1.18568
 Alpha  occ. eigenvalues --   -1.18189  -1.18034  -1.17946  -1.17925  -1.17853
 Alpha  occ. eigenvalues --   -1.16846  -1.12146  -0.97915  -0.97097  -0.97007
 Alpha  occ. eigenvalues --   -0.96320  -0.94322  -0.93190  -0.92037  -0.90395
 Alpha  occ. eigenvalues --   -0.89636  -0.88773  -0.86599  -0.86004  -0.85516
 Alpha  occ. eigenvalues --   -0.85013  -0.84797  -0.83575  -0.82155  -0.81957
 Alpha  occ. eigenvalues --   -0.79520  -0.79202  -0.76627  -0.75952  -0.75584
 Alpha  occ. eigenvalues --   -0.74653  -0.74012  -0.73490  -0.72958  -0.71200
 Alpha  occ. eigenvalues --   -0.70603  -0.70475  -0.69547  -0.68177  -0.67023
 Alpha  occ. eigenvalues --   -0.66822  -0.65849  -0.64497  -0.63925  -0.62594
 Alpha  occ. eigenvalues --   -0.62086  -0.61686  -0.61055  -0.60816  -0.60120
 Alpha  occ. eigenvalues --   -0.59431  -0.59010  -0.58498  -0.58328  -0.57430
 Alpha  occ. eigenvalues --   -0.57162  -0.57035  -0.56207  -0.55593  -0.55475
 Alpha  occ. eigenvalues --   -0.55327  -0.55111  -0.54312  -0.54061  -0.53421
 Alpha  occ. eigenvalues --   -0.53188  -0.52953  -0.52878  -0.52754  -0.52458
 Alpha  occ. eigenvalues --   -0.51823  -0.51548  -0.51113  -0.50955  -0.50614
 Alpha  occ. eigenvalues --   -0.50508  -0.50030  -0.50012  -0.49840  -0.49542
 Alpha  occ. eigenvalues --   -0.49473  -0.49103  -0.48244  -0.48052  -0.47866
 Alpha  occ. eigenvalues --   -0.47666  -0.47411  -0.47250  -0.47195  -0.46786
 Alpha  occ. eigenvalues --   -0.46364  -0.46041  -0.45990  -0.45894  -0.45645
 Alpha  occ. eigenvalues --   -0.45400  -0.44573  -0.44149  -0.43856  -0.43551
 Alpha  occ. eigenvalues --   -0.43484  -0.42961  -0.42892  -0.42474  -0.42091
 Alpha  occ. eigenvalues --   -0.42023  -0.40852  -0.40552  -0.38671  -0.37037
 Alpha  occ. eigenvalues --   -0.34472  -0.33839  -0.33119  -0.32990  -0.32539
 Alpha  occ. eigenvalues --   -0.31568  -0.30579  -0.30240  -0.29374  -0.28017
 Alpha  occ. eigenvalues --   -0.26297
 Alpha virt. eigenvalues --   -0.03386   0.00605   0.03225   0.03813   0.04159
 Alpha virt. eigenvalues --    0.04228   0.04398   0.04774   0.04973   0.05082
 Alpha virt. eigenvalues --    0.05274   0.05591   0.05750   0.05814   0.06014
 Alpha virt. eigenvalues --    0.06234   0.06386   0.06566   0.06686   0.07015
 Alpha virt. eigenvalues --    0.07162   0.07562   0.07860   0.07930   0.08062
 Alpha virt. eigenvalues --    0.08154   0.08330   0.08782   0.08969   0.09268
 Alpha virt. eigenvalues --    0.09374   0.09543   0.09736   0.10087   0.10468
 Alpha virt. eigenvalues --    0.10663   0.10757   0.10822   0.11218   0.11525
 Alpha virt. eigenvalues --    0.11728   0.11875   0.12162   0.12445   0.12601
 Alpha virt. eigenvalues --    0.12750   0.12837   0.13203   0.13365   0.13810
 Alpha virt. eigenvalues --    0.14054   0.14152   0.14191   0.14382   0.14647
 Alpha virt. eigenvalues --    0.14859   0.14922   0.15151   0.15224   0.15335
 Alpha virt. eigenvalues --    0.15617   0.15705   0.16027   0.16156   0.16303
 Alpha virt. eigenvalues --    0.16388   0.16534   0.16704   0.16836   0.17096
 Alpha virt. eigenvalues --    0.17193   0.17328   0.17581   0.17630   0.17868
 Alpha virt. eigenvalues --    0.18030   0.18143   0.18260   0.18337   0.18620
 Alpha virt. eigenvalues --    0.18690   0.18839   0.18960   0.19131   0.19355
 Alpha virt. eigenvalues --    0.19481   0.19572   0.19724   0.19812   0.19983
 Alpha virt. eigenvalues --    0.20275   0.20329   0.20574   0.20658   0.20751
 Alpha virt. eigenvalues --    0.20938   0.21171   0.21300   0.21348   0.21497
 Alpha virt. eigenvalues --    0.21600   0.21760   0.21938   0.22067   0.22273
 Alpha virt. eigenvalues --    0.22405   0.22748   0.22796   0.22883   0.22937
 Alpha virt. eigenvalues --    0.23304   0.23336   0.23533   0.23632   0.23814
 Alpha virt. eigenvalues --    0.23846   0.23974   0.24243   0.24324   0.24600
 Alpha virt. eigenvalues --    0.24691   0.24919   0.24976   0.25031   0.25170
 Alpha virt. eigenvalues --    0.25359   0.25484   0.25612   0.25721   0.25927
 Alpha virt. eigenvalues --    0.26164   0.26231   0.26368   0.26533   0.26662
 Alpha virt. eigenvalues --    0.26845   0.26961   0.27282   0.27460   0.27597
 Alpha virt. eigenvalues --    0.27724   0.27837   0.28012   0.28137   0.28196
 Alpha virt. eigenvalues --    0.28546   0.28697   0.28765   0.28961   0.29004
 Alpha virt. eigenvalues --    0.29108   0.29237   0.29356   0.29460   0.29844
 Alpha virt. eigenvalues --    0.29929   0.30098   0.30225   0.30430   0.30552
 Alpha virt. eigenvalues --    0.30708   0.30862   0.30975   0.31127   0.31222
 Alpha virt. eigenvalues --    0.31427   0.31469   0.31666   0.31803   0.32000
 Alpha virt. eigenvalues --    0.32292   0.32342   0.32540   0.32876   0.32925
 Alpha virt. eigenvalues --    0.33022   0.33318   0.33355   0.33495   0.33560
 Alpha virt. eigenvalues --    0.33743   0.33902   0.33948   0.34063   0.34331
 Alpha virt. eigenvalues --    0.34462   0.34598   0.34741   0.34897   0.35077
 Alpha virt. eigenvalues --    0.35182   0.35370   0.35526   0.35743   0.35819
 Alpha virt. eigenvalues --    0.35904   0.35949   0.36042   0.36227   0.36267
 Alpha virt. eigenvalues --    0.36639   0.36845   0.36932   0.37166   0.37355
 Alpha virt. eigenvalues --    0.37540   0.37608   0.37712   0.37829   0.38081
 Alpha virt. eigenvalues --    0.38232   0.38358   0.38602   0.38783   0.38924
 Alpha virt. eigenvalues --    0.39041   0.39262   0.39411   0.39517   0.39831
 Alpha virt. eigenvalues --    0.39898   0.40261   0.40306   0.40416   0.40622
 Alpha virt. eigenvalues --    0.40848   0.41072   0.41129   0.41221   0.41454
 Alpha virt. eigenvalues --    0.41551   0.41808   0.41903   0.42112   0.42378
 Alpha virt. eigenvalues --    0.42631   0.42789   0.42837   0.43297   0.43314
 Alpha virt. eigenvalues --    0.43443   0.43688   0.43841   0.43968   0.44139
 Alpha virt. eigenvalues --    0.44324   0.44519   0.44663   0.44845   0.44942
 Alpha virt. eigenvalues --    0.45320   0.45582   0.45658   0.46238   0.46656
 Alpha virt. eigenvalues --    0.46852   0.46948   0.47271   0.47368   0.47610
 Alpha virt. eigenvalues --    0.47923   0.48037   0.48240   0.48689   0.48834
 Alpha virt. eigenvalues --    0.48942   0.49201   0.49455   0.49646   0.49910
 Alpha virt. eigenvalues --    0.50133   0.50378   0.50509   0.50808   0.51108
 Alpha virt. eigenvalues --    0.51279   0.51590   0.51730   0.51769   0.52120
 Alpha virt. eigenvalues --    0.52310   0.52713   0.53002   0.53296   0.53626
 Alpha virt. eigenvalues --    0.53875   0.54252   0.54544   0.55016   0.55605
 Alpha virt. eigenvalues --    0.55853   0.56001   0.56327   0.56385   0.56927
 Alpha virt. eigenvalues --    0.57188   0.57940   0.58316   0.58818   0.59263
 Alpha virt. eigenvalues --    0.59645   0.59772   0.60160   0.60437   0.60820
 Alpha virt. eigenvalues --    0.61652   0.61770   0.62007   0.62610   0.62749
 Alpha virt. eigenvalues --    0.63066   0.63281   0.63961   0.64165   0.64242
 Alpha virt. eigenvalues --    0.64630   0.65060   0.65284   0.65651   0.65752
 Alpha virt. eigenvalues --    0.66024   0.66493   0.66687   0.66783   0.67128
 Alpha virt. eigenvalues --    0.67404   0.67647   0.67974   0.68018   0.68404
 Alpha virt. eigenvalues --    0.68756   0.68839   0.69222   0.69517   0.69815
 Alpha virt. eigenvalues --    0.69897   0.70289   0.70751   0.70922   0.70972
 Alpha virt. eigenvalues --    0.71378   0.71826   0.71997   0.72251   0.72498
 Alpha virt. eigenvalues --    0.72658   0.72983   0.73270   0.73444   0.73828
 Alpha virt. eigenvalues --    0.73923   0.74499   0.74650   0.75104   0.75139
 Alpha virt. eigenvalues --    0.75720   0.75901   0.76279   0.76467   0.76655
 Alpha virt. eigenvalues --    0.77078   0.77265   0.77637   0.77808   0.77944
 Alpha virt. eigenvalues --    0.78184   0.78525   0.78671   0.78697   0.79102
 Alpha virt. eigenvalues --    0.79569   0.79819   0.80078   0.80117   0.80405
 Alpha virt. eigenvalues --    0.80748   0.81244   0.81458   0.81588   0.82033
 Alpha virt. eigenvalues --    0.82186   0.82285   0.82425   0.82752   0.83023
 Alpha virt. eigenvalues --    0.83034   0.83479   0.83987   0.84090   0.84290
 Alpha virt. eigenvalues --    0.84689   0.84909   0.85009   0.85292   0.85826
 Alpha virt. eigenvalues --    0.86053   0.86345   0.86776   0.87121   0.87263
 Alpha virt. eigenvalues --    0.87293   0.87480   0.87835   0.88122   0.88541
 Alpha virt. eigenvalues --    0.88767   0.89082   0.89180   0.89474   0.89581
 Alpha virt. eigenvalues --    0.90210   0.90353   0.90800   0.90870   0.91453
 Alpha virt. eigenvalues --    0.91583   0.91715   0.92208   0.92356   0.92723
 Alpha virt. eigenvalues --    0.93160   0.93332   0.93955   0.94390   0.94490
 Alpha virt. eigenvalues --    0.94982   0.95215   0.95356   0.95425   0.95980
 Alpha virt. eigenvalues --    0.96478   0.96765   0.97009   0.97234   0.97765
 Alpha virt. eigenvalues --    0.97861   0.98736   0.98997   0.99147   0.99222
 Alpha virt. eigenvalues --    0.99305   1.00030   1.00229   1.00421   1.00628
 Alpha virt. eigenvalues --    1.01001   1.01374   1.01699   1.02285   1.02413
 Alpha virt. eigenvalues --    1.02543   1.02862   1.03467   1.03900   1.04325
 Alpha virt. eigenvalues --    1.04781   1.04909   1.05213   1.05438   1.06369
 Alpha virt. eigenvalues --    1.06434   1.06732   1.06930   1.07523   1.08180
 Alpha virt. eigenvalues --    1.08440   1.08805   1.09266   1.09624   1.10139
 Alpha virt. eigenvalues --    1.10240   1.10797   1.11016   1.11250   1.11507
 Alpha virt. eigenvalues --    1.11877   1.12187   1.12384   1.12903   1.13147
 Alpha virt. eigenvalues --    1.13447   1.13773   1.14043   1.14272   1.14756
 Alpha virt. eigenvalues --    1.14971   1.15272   1.15360   1.16357   1.16447
 Alpha virt. eigenvalues --    1.16780   1.17021   1.17197   1.17724   1.18224
 Alpha virt. eigenvalues --    1.18562   1.19143   1.19260   1.19526   1.20156
 Alpha virt. eigenvalues --    1.20368   1.20815   1.21331   1.21754   1.22211
 Alpha virt. eigenvalues --    1.22354   1.22743   1.23262   1.23977   1.24184
 Alpha virt. eigenvalues --    1.24506   1.24904   1.25693   1.26164   1.26281
 Alpha virt. eigenvalues --    1.26485   1.26781   1.27331   1.27581   1.28067
 Alpha virt. eigenvalues --    1.28248   1.29217   1.29659   1.29991   1.30437
 Alpha virt. eigenvalues --    1.30801   1.31068   1.31705   1.31750   1.32842
 Alpha virt. eigenvalues --    1.33289   1.33852   1.34380   1.34554   1.35134
 Alpha virt. eigenvalues --    1.35513   1.35732   1.36364   1.36505   1.37382
 Alpha virt. eigenvalues --    1.37844   1.38338   1.38753   1.39235   1.39957
 Alpha virt. eigenvalues --    1.40128   1.40929   1.41499   1.42002   1.42853
 Alpha virt. eigenvalues --    1.43242   1.43824   1.44262   1.44878   1.45745
 Alpha virt. eigenvalues --    1.45971   1.46493   1.46906   1.47914   1.48113
 Alpha virt. eigenvalues --    1.48662   1.49027   1.49290   1.49894   1.50532
 Alpha virt. eigenvalues --    1.50728   1.51429   1.51507   1.51813   1.52478
 Alpha virt. eigenvalues --    1.52761   1.53468   1.53976   1.54389   1.54909
 Alpha virt. eigenvalues --    1.55404   1.55919   1.56091   1.56971   1.57264
 Alpha virt. eigenvalues --    1.57927   1.58271   1.58699   1.59616   1.59734
 Alpha virt. eigenvalues --    1.60426   1.60550   1.60840   1.61176   1.61542
 Alpha virt. eigenvalues --    1.62279   1.62386   1.62823   1.63039   1.63498
 Alpha virt. eigenvalues --    1.63751   1.64030   1.64442   1.65122   1.65283
 Alpha virt. eigenvalues --    1.65795   1.66154   1.66533   1.66848   1.67398
 Alpha virt. eigenvalues --    1.67540   1.67807   1.68158   1.68423   1.68592
 Alpha virt. eigenvalues --    1.69133   1.69164   1.69349   1.69716   1.69866
 Alpha virt. eigenvalues --    1.70191   1.70812   1.71141   1.71475   1.71694
 Alpha virt. eigenvalues --    1.72069   1.72200   1.72646   1.73049   1.73159
 Alpha virt. eigenvalues --    1.73486   1.74176   1.74463   1.75349   1.75512
 Alpha virt. eigenvalues --    1.76353   1.76619   1.77029   1.77321   1.77998
 Alpha virt. eigenvalues --    1.78266   1.78472   1.78874   1.79698   1.80312
 Alpha virt. eigenvalues --    1.80989   1.81264   1.81409   1.81731   1.82253
 Alpha virt. eigenvalues --    1.82378   1.83025   1.83462   1.83633   1.84114
 Alpha virt. eigenvalues --    1.84222   1.84972   1.85413   1.86056   1.86186
 Alpha virt. eigenvalues --    1.86394   1.87516   1.87758   1.88320   1.88700
 Alpha virt. eigenvalues --    1.89156   1.89449   1.89844   1.90117   1.90629
 Alpha virt. eigenvalues --    1.90932   1.91757   1.92133   1.92164   1.92417
 Alpha virt. eigenvalues --    1.92710   1.92981   1.93697   1.94114   1.94603
 Alpha virt. eigenvalues --    1.94767   1.95248   1.95505   1.96052   1.96296
 Alpha virt. eigenvalues --    1.97038   1.97385   1.97932   1.98327   1.98438
 Alpha virt. eigenvalues --    1.99213   1.99396   1.99681   2.00155   2.00424
 Alpha virt. eigenvalues --    2.01647   2.02239   2.02505   2.02809   2.03052
 Alpha virt. eigenvalues --    2.03451   2.03757   2.04032   2.04496   2.05520
 Alpha virt. eigenvalues --    2.05705   2.06239   2.06626   2.06877   2.07123
 Alpha virt. eigenvalues --    2.07235   2.07740   2.08025   2.08386   2.08772
 Alpha virt. eigenvalues --    2.08952   2.09761   2.10257   2.10745   2.10865
 Alpha virt. eigenvalues --    2.11095   2.11383   2.11723   2.12231   2.12729
 Alpha virt. eigenvalues --    2.13103   2.13590   2.14173   2.14834   2.15097
 Alpha virt. eigenvalues --    2.15965   2.16183   2.16616   2.16901   2.17449
 Alpha virt. eigenvalues --    2.17543   2.18174   2.18699   2.19003   2.19484
 Alpha virt. eigenvalues --    2.19785   2.20216   2.20519   2.20819   2.21626
 Alpha virt. eigenvalues --    2.21884   2.22490   2.23072   2.23406   2.24029
 Alpha virt. eigenvalues --    2.24678   2.24837   2.25237   2.25787   2.26359
 Alpha virt. eigenvalues --    2.26923   2.27592   2.28059   2.28628   2.29091
 Alpha virt. eigenvalues --    2.29768   2.30635   2.30914   2.31269   2.31898
 Alpha virt. eigenvalues --    2.32931   2.33466   2.34573   2.36461   2.36625
 Alpha virt. eigenvalues --    2.37768   2.38027   2.39134   2.39799   2.40510
 Alpha virt. eigenvalues --    2.41279   2.41619   2.42091   2.42194   2.43053
 Alpha virt. eigenvalues --    2.43182   2.43600   2.44735   2.45435   2.45821
 Alpha virt. eigenvalues --    2.46114   2.46898   2.47186   2.47595   2.47763
 Alpha virt. eigenvalues --    2.48985   2.50651   2.51419   2.51985   2.52154
 Alpha virt. eigenvalues --    2.52974   2.53533   2.54522   2.55014   2.56407
 Alpha virt. eigenvalues --    2.57440   2.58673   2.58920   2.59193   2.60128
 Alpha virt. eigenvalues --    2.60836   2.61614   2.61951   2.62220   2.64419
 Alpha virt. eigenvalues --    2.65401   2.66692   2.66888   2.67030   2.67905
 Alpha virt. eigenvalues --    2.68393   2.68702   2.69743   2.69994   2.71203
 Alpha virt. eigenvalues --    2.71597   2.71872   2.72391   2.72734   2.73731
 Alpha virt. eigenvalues --    2.74284   2.75355   2.75484   2.75616   2.76154
 Alpha virt. eigenvalues --    2.76943   2.77340   2.77963   2.78693   2.79294
 Alpha virt. eigenvalues --    2.79690   2.80541   2.81155   2.81944   2.82102
 Alpha virt. eigenvalues --    2.82438   2.82712   2.83084   2.83803   2.84122
 Alpha virt. eigenvalues --    2.84847   2.85310   2.85737   2.85872   2.86740
 Alpha virt. eigenvalues --    2.86977   2.87407   2.87795   2.87975   2.88221
 Alpha virt. eigenvalues --    2.88863   2.89275   2.89789   2.89978   2.90213
 Alpha virt. eigenvalues --    2.91234   2.91917   2.92783   2.93111   2.93559
 Alpha virt. eigenvalues --    2.93805   2.94000   2.94358   2.94917   2.95484
 Alpha virt. eigenvalues --    2.96097   2.96901   2.97318   2.98040   2.98447
 Alpha virt. eigenvalues --    2.99182   2.99542   3.00096   3.00504   3.01276
 Alpha virt. eigenvalues --    3.01602   3.02229   3.02845   3.03518   3.04088
 Alpha virt. eigenvalues --    3.04682   3.05139   3.05955   3.06907   3.07302
 Alpha virt. eigenvalues --    3.07846   3.08976   3.09614   3.10139   3.11181
 Alpha virt. eigenvalues --    3.11550   3.13037   3.13624   3.14528   3.15301
 Alpha virt. eigenvalues --    3.15592   3.16052   3.16531   3.16967   3.17065
 Alpha virt. eigenvalues --    3.17446   3.17618   3.17996   3.18202   3.18358
 Alpha virt. eigenvalues --    3.18721   3.18938   3.19299   3.19868   3.20573
 Alpha virt. eigenvalues --    3.21014   3.21258   3.21374   3.21837   3.22957
 Alpha virt. eigenvalues --    3.23443   3.24199   3.25079   3.25405   3.25934
 Alpha virt. eigenvalues --    3.26673   3.26738   3.27015   3.27148   3.27709
 Alpha virt. eigenvalues --    3.28144   3.28353   3.29135   3.29367   3.30022
 Alpha virt. eigenvalues --    3.30186   3.30557   3.31204   3.31584   3.32020
 Alpha virt. eigenvalues --    3.32114   3.33331   3.33589   3.34356   3.34594
 Alpha virt. eigenvalues --    3.35642   3.36412   3.36936   3.37056   3.38513
 Alpha virt. eigenvalues --    3.39619   3.41113   3.43142   3.43907   3.44750
 Alpha virt. eigenvalues --    3.46353   3.46699   3.47076   3.48141   3.49500
 Alpha virt. eigenvalues --    3.51136   3.53088   3.53427   3.53756   3.54961
 Alpha virt. eigenvalues --    3.55631   3.56568   3.56840   3.58706   3.59726
 Alpha virt. eigenvalues --    3.60951   3.61559   3.61927   3.62666   3.62939
 Alpha virt. eigenvalues --    3.65005   3.66346   3.68089   3.68765   3.70562
 Alpha virt. eigenvalues --    3.71125   3.71735   3.72614   3.73178   3.74757
 Alpha virt. eigenvalues --    3.75612   3.76242   3.77922   3.80139   3.82196
 Alpha virt. eigenvalues --    3.83747   3.84823   3.86181   3.86837   3.87683
 Alpha virt. eigenvalues --    3.88408   3.91095   3.91816   3.92108   3.93555
 Alpha virt. eigenvalues --    3.94505   3.95656   3.95920   3.96082   3.98305
 Alpha virt. eigenvalues --    3.99438   3.99501   4.02118   4.02497   4.02756
 Alpha virt. eigenvalues --    4.03626   4.05138   4.06844   4.09268   4.13342
 Alpha virt. eigenvalues --    4.14971   4.18495   4.18997   4.19727   4.19982
 Alpha virt. eigenvalues --    4.21832   4.22236   4.23934   4.26355   4.29304
 Alpha virt. eigenvalues --    4.29704   4.30795   4.31504   4.33044   4.34238
 Alpha virt. eigenvalues --    4.35625   4.37330   4.39383   4.41430   4.42114
 Alpha virt. eigenvalues --    4.45577   4.45968   4.51344   4.54315   4.54771
 Alpha virt. eigenvalues --    4.66457   4.70751   4.80931   4.93125   4.94991
 Alpha virt. eigenvalues --    4.96286   4.97409   5.10959   5.11001   5.14700
 Alpha virt. eigenvalues --    5.16650   5.19785   5.24351   5.25377   5.31750
 Alpha virt. eigenvalues --    5.35242   5.48799   5.54878   5.55579   5.59674
 Alpha virt. eigenvalues --    5.62826   5.63959   5.65211   5.69840   5.71674
 Alpha virt. eigenvalues --    5.84674   5.86290   5.88514   5.89565   5.90409
 Alpha virt. eigenvalues --    5.96697   5.97773   5.99594   6.03306  23.72144
 Alpha virt. eigenvalues --   23.73284  23.78180  23.82754  23.88370  23.94865
 Alpha virt. eigenvalues --   23.98588  24.02525  24.04888  24.05264  24.05989
 Alpha virt. eigenvalues --   24.08279  24.08463  24.09191  24.09397  24.09549
 Alpha virt. eigenvalues --   24.09886  24.10614  24.12917  24.13689  24.15080
 Alpha virt. eigenvalues --   24.16212  24.17388  24.17985  24.18849  24.20019
 Alpha virt. eigenvalues --   24.22420  24.22460  24.23314  24.23457  24.24011
 Alpha virt. eigenvalues --   24.27232  24.29624  24.30345  24.30887  24.31472
 Alpha virt. eigenvalues --   24.32966  24.33537  24.39032  50.06504  50.06696
 Alpha virt. eigenvalues --   50.09924  50.11165  50.11648  50.12337  50.15106
 Alpha virt. eigenvalues --   50.17780  50.23343
          Condensed to atoms (all electrons):
 Mulliken charges:
               1
     1  C   -0.167055
     2  C   -0.710850
     3  C   -0.150016
     4  C   -0.403569
     5  C    0.449848
     6  C   -0.322273
     7  H    0.255355
     8  H    0.252045
     9  H    0.183080
    10  O   -0.266209
    11  H    0.318008
    12  O   -0.212804
    13  H    0.322693
    14  C    0.325072
    15  H    0.391020
    16  C   -0.099953
    17  H    0.008364
    18  C   -0.150303
    19  O   -0.255847
    20  C    0.608246
    21  C   -0.265703
    22  C   -0.543722
    23  C   -0.137883
    24  H    0.265421
    25  C    0.122657
    26  C   -0.514191
    27  H    0.247403
    28  O   -0.204523
    29  H    0.360363
    30  O   -0.145669
    31  H    0.342580
    32  C    0.275424
    33  C   -0.713312
    34  C   -0.340960
    35  C   -0.297140
    36  H    0.225925
    37  C   -0.169859
    38  H    0.342631
    39  C    0.078741
    40  O   -0.052922
    41  H    0.400321
    42  O   -0.161382
    43  H    0.322601
    44  C   -0.432587
    45  H    0.259171
    46  C   -0.525257
    47  H    0.219282
    48  C    1.053207
    49  C   -0.907911
    50  H    0.205900
    51  H    0.272116
    52  C   -0.740556
    53  H    0.203552
    54  H    0.180408
    55  H    0.194551
    56  C   -0.618556
    57  H    0.207366
    58  H    0.243486
    59  C   -0.268227
    60  H    0.119224
    61  C    0.302186
    62  C   -0.659504
    63  H    0.217545
    64  H    0.163259
    65  H    0.209167
    66  C   -0.662988
    67  H    0.213652
    68  H    0.148603
    69  H    0.195389
    70  C    0.331118
    71  C    0.274546
    72  C   -0.767532
    73  C   -0.582588
    74  C    0.118420
    75  C   -0.643681
    76  C    0.068592
    77  C    0.366533
    78  H    0.270929
    79  H    0.236413
    80  H    0.247275
    81  H    0.266858
    82  O   -0.245601
    83  H    0.317870
    84  O    0.136720
 Sum of Mulliken charges =  -0.00000
 Mulliken charges with hydrogens summed into heavy atoms:
               1
     1  C    0.088300
     2  C   -0.710850
     3  C    0.102030
     4  C   -0.220488
     5  C    0.449848
     6  C   -0.322273
    10  O    0.051799
    12  O    0.109889
    14  C    0.716091
    16  C   -0.091589
    18  C   -0.150303
    19  O   -0.255847
    20  C    0.608246
    21  C   -0.000282
    22  C   -0.543722
    23  C    0.109520
    25  C    0.122657
    26  C   -0.514191
    28  O    0.155840
    30  O    0.196911
    32  C    0.275424
    33  C   -0.487387
    34  C    0.001671
    35  C   -0.297140
    37  C   -0.169859
    39  C    0.078741
    40  O    0.347399
    42  O    0.161219
    44  C   -0.173416
    46  C   -0.305975
    48  C    1.053207
    49  C   -0.429895
    52  C   -0.162045
    56  C   -0.167705
    59  C   -0.149003
    61  C    0.302186
    62  C   -0.069534
    66  C   -0.105344
    70  C    0.331118
    71  C    0.274546
    72  C   -0.496603
    73  C   -0.582588
    74  C    0.354833
    75  C   -0.396406
    76  C    0.335450
    77  C    0.366533
    82  O    0.072269
    84  O    0.136720
 Electronic spatial extent (au):  <R**2>=          33390.9805
 Charge=             -0.0000 electrons
 Dipole moment (field-independent basis, Debye):
    X=             -2.3988    Y=             -7.7259    Z=             -2.0653  Tot=              8.3492
 Quadrupole moment (field-independent basis, Debye-Ang):
   XX=           -225.1717   YY=           -229.2560   ZZ=           -296.6821
   XY=             -1.7935   XZ=            -13.1377   YZ=             -2.8900
 Traceless Quadrupole moment (field-independent basis, Debye-Ang):
   XX=             25.1983   YY=             21.1139   ZZ=            -46.3122
   XY=             -1.7935   XZ=            -13.1377   YZ=             -2.8900
 Octapole moment (field-independent basis, Debye-Ang**2):
  XXX=            -85.1511  YYY=           -198.2746  ZZZ=              9.3168  XYY=            -72.1734
  XXY=           -175.9305  XXZ=             83.2860  XZZ=             -2.9334  YZZ=             20.1371
  YYZ=            -49.2971  XYZ=             35.9556
 Hexadecapole moment (field-independent basis, Debye-Ang**3):
 XXXX=         -26654.5295 YYYY=          -8169.1805 ZZZZ=          -3090.2261 XXXY=           2346.1705
 XXXZ=           -387.8541 YYYX=           -367.9923 YYYZ=              7.1524 ZZZX=            -15.3732
 ZZZY=             23.4021 XXYY=          -5562.7694 XXZZ=          -6016.5285 YYZZ=          -2102.8088
 XXYZ=           -108.4046 YYXZ=           -302.5701 ZZXY=           -107.0823
 N-N= 6.207119372032D+03 E-N=-1.751552510421D+04  KE= 2.175868454925D+03
 1\1\GINC-NODE2\SP\RwB97XD\6-311++G(d,p)\C39H36O9\ZHOUJUNSU\11-Jul-2023
 \0\\# wb97xd/6-311++G(d,p) integral(ultrafinegrid) guess=read geom=che
 ck scrf=(cpcm,read,solvent=water)\\Candidate Structure: MaDA-TS-1, Con
 former: 1, Single-point energies calculated with wB97X-D/6-311++G(d,p)
 \\0,1\C,0,7.6162032723,-1.7963292979,0.655837042\C,0,7.1921634295,-3.0
 30264109,0.1656760823\C,0,5.8634690488,-3.2127408867,-0.221481644\C,0,
 4.9736973449,-2.1527657575,-0.098968689\C,0,5.358423218,-0.9085935568,
 0.4057139003\C,0,6.7085254947,-0.7460582427,0.7640100971\H,0,8.6551136
 339,-1.6677182542,0.9458058853\H,0,5.5310882657,-4.1681649808,-0.61712
 42138\H,0,3.9457189562,-2.2979862196,-0.4217121477\O,0,8.1241483823,-4
 .0142736978,0.0831199301\H,0,7.7149749264,-4.8153248398,-0.2700769061\
 O,0,7.0909405587,0.4768960787,1.2181873853\H,0,8.0355450517,0.46678726
 38,1.4208448644\C,0,4.4120299929,0.2296364532,0.5262615576\H,0,4.81889
 97444,1.1158552597,1.0018556525\C,0,3.0545140018,-0.0066120373,0.80061
 24973\H,0,2.6373568747,-1.0024668672,0.7275391075\C,0,2.2372188517,1.0
 822968174,1.2307703402\O,0,2.7153125178,2.2533613689,1.2440134427\C,0,
 0.820009607,0.8709753567,1.6128872171\C,0,0.2815426066,-0.3983341397,1
 .8667389445\C,0,-0.0562541855,1.9795152804,1.6667377387\C,0,-1.0547552
 812,-0.5779184269,2.15674031\H,0,0.9280966912,-1.2690502953,1.84998601
 01\C,0,-1.4291198055,1.8192769763,1.9204498128\C,0,-1.9085596331,0.530
 3987151,2.1622946483\H,0,-1.4660705555,-1.562689753,2.3482135853\O,0,0
 .3924982502,3.2287137082,1.4552931387\H,0,1.3814660339,3.1327204842,1.
 3407075521\O,0,-3.2189249002,0.2733208253,2.4116096871\H,0,-3.72256282
 14,1.0958389157,2.4562231893\C,0,-2.0411084186,-1.2705870473,-1.114222
 5333\C,0,-0.9164013862,-2.0895466444,-1.2527075386\C,0,-1.903398874,0.
 1104659574,-1.217625777\C,0,0.3278593716,-1.5123463141,-1.4584469775\H
 ,0,-1.0033925481,-3.1694575777,-1.1791532689\C,0,-0.6490553468,0.68074
 45653,-1.406510569\H,0,-2.7698257433,0.7529386955,-1.1196490424\C,0,0.
 5107697294,-0.1099796886,-1.5387665192\O,0,-0.5241532576,2.0262863735,
 -1.4667548986\H,0,-1.305883715,2.432755648,-1.0494741181\O,0,1.4450594
 261,-2.278975798,-1.5640186705\H,0,1.2121846643,-3.2099831308,-1.45293
 62923\C,0,1.868145387,0.3967602664,-1.6147267221\H,0,2.6062314847,-0.3
 9043386,-1.6931323429\C,0,2.3096242787,1.6966151458,-1.6779079055\H,0,
 1.5911036492,2.5057990683,-1.694065947\C,0,3.6725159707,2.0317284811,-
 1.4943566076\C,0,4.6421754336,1.0424150197,-1.3143860547\H,0,4.5180031
 862,0.0889539358,-1.8165392607\H,0,5.6798502201,1.3588638697,-1.230565
 6664\C,0,4.0624048288,3.4781873428,-1.3439423814\H,0,4.5815252651,3.83
 5297268,-2.2418472645\H,0,3.1925770701,4.1180705499,-1.1749437808\H,0,
 4.7478677526,3.6015656007,-0.49926558\C,0,-2.3495873178,3.020389486,1.
 8345797868\H,0,-1.7680596064,3.9248222924,2.0139208581\H,0,-3.10173961
 19,2.9924898984,2.636161714\C,0,-3.05591974,3.0804280815,0.4994130069\
 H,0,-3.8119494604,2.3087299846,0.345951348\C,0,-2.857420465,3.95286698
 59,-0.5007401243\C,0,-3.664298408,3.8599493462,-1.7726549065\H,0,-3.00
 86449225,3.6816992048,-2.6344980246\H,0,-4.4055153751,3.0562769811,-1.
 7322932493\H,0,-4.1887043587,4.8039956996,-1.9644878738\C,0,-1.8542946
 466,5.0783112009,-0.4712063666\H,0,-2.3698275041,6.0438619825,-0.39735
 46108\H,0,-1.1418523882,4.9936596941,0.3507734658\H,0,-1.2842731698,5.
 0965929229,-1.4080183762\C,0,-5.1836449597,-3.0417432883,-0.347967655\
 C,0,-5.4984617076,-1.6783203838,-0.4172939148\C,0,-6.7653973243,-1.156
 8600784,-0.2052420697\C,0,-7.7641150869,-2.0794369704,0.0937882528\C,0
 ,-7.4880564161,-3.4603080158,0.168454081\C,0,-6.2084233697,-3.94672098
 48,-0.0489463825\C,0,-3.7733665655,-3.1217447163,-0.6232393403\C,0,-3.
 3494067027,-1.8482991302,-0.8325807752\H,0,-6.9771548304,-0.0955522529
 ,-0.2621567873\H,0,-8.2956521167,-4.1493791376,0.4011948258\H,0,-6.011
 8761451,-5.0121641032,0.0140667705\H,0,-3.1651177866,-4.0143232815,-0.
 6507594686\O,0,-9.0131849534,-1.5876680209,0.3098050391\H,0,-9.6148306
 167,-2.3134656913,0.5206109064\O,0,-4.3912904454,-0.9545215738,-0.7154
 824286\\Version=ES64L-G16RevA.03\State=1-A\HF=-2184.7006172\RMSD=3.133
 e-09\Dipole=-0.8913407,-3.0221811,-0.9284674\Quadrupole=18.9197922,15.
 7587105,-34.6785027,-0.9335664,-9.3653371,-0.4980011\PG=C01 [X(C39H36O
 9)]\\@


 WE MIGHT AS WELL ATTEMPT TO INTRODUCE A NEW PLANET 
 INTO THE SOLAR SYSTEM, OR TO ANNIHILATE ONE ALREADYIN EXISTENCE, 
 AS TO CREATE OR DESTROY A PARTICLE OF HYDROGEN.
 ALL THE CHANGES WE CAN PRODUCE CONSIST IN SEPARATING PARTICLES
 THAT ARE IN A STATE OF ... COMBINATION, AND JOINING 
 THOSE THAT WERE PREVIOUSLY AT A DISTANCE.

                                    -- JOHN DALTON, 1810
 Job cpu time:       0 days 20 hours 45 minutes 55.8 seconds.
 Elapsed time:       0 days  1 hours 30 minutes 11.4 seconds.
 File lengths (MBytes):  RWF=   1125 Int=      0 D2E=      0 Chk=    139 Scr=      2
 Normal termination of Gaussian 16 at Tue Jul 11 11:00:08 2023.
