 Entering Gaussian System, Link 0=g16
 Input=MaDA-exo-1-opt_freq-conf-1.com
 Output=MaDA-exo-1-opt_freq-conf-1.log
 Initial command:
 /public/home/zhoujunsu/g16/l1.exe "/public/home/zhoujunsu/g16/scratch/Gau-380330.inp" -scrdir="/public/home/zhoujunsu/g16/scratch/"
 Entering Link 1 = /public/home/zhoujunsu/g16/l1.exe PID=    380331.
  
 Copyright (c) 1988,1990,1992,1993,1995,1998,2003,2009,2016,
            Gaussian, Inc.  All Rights Reserved.
  
 This is part of the Gaussian(R) 16 program.  It is based on
 the Gaussian(R) 09 system (copyright 2009, Gaussian, Inc.),
 the Gaussian(R) 03 system (copyright 2003, Gaussian, Inc.),
 the Gaussian(R) 98 system (copyright 1998, Gaussian, Inc.),
 the Gaussian(R) 94 system (copyright 1995, Gaussian, Inc.),
 the Gaussian 92(TM) system (copyright 1992, Gaussian, Inc.),
 the Gaussian 90(TM) system (copyright 1990, Gaussian, Inc.),
 the Gaussian 88(TM) system (copyright 1988, Gaussian, Inc.),
 the Gaussian 86(TM) system (copyright 1986, Carnegie Mellon
 University), and the Gaussian 82(TM) system (copyright 1983,
 Carnegie Mellon University). Gaussian is a federally registered
 trademark of Gaussian, Inc.
  
 This software contains proprietary and confidential information,
 including trade secrets, belonging to Gaussian, Inc.
  
 This software is provided under written license and may be
 used, copied, transmitted, or stored only in accord with that
 written license.
  
 The following legend is applicable only to US Government
 contracts under FAR:
  
                    RESTRICTED RIGHTS LEGEND
  
 Use, reproduction and disclosure by the US Government is
 subject to restrictions as set forth in subparagraphs (a)
 and (c) of the Commercial Computer Software - Restricted
 Rights clause in FAR 52.227-19.
  
 Gaussian, Inc.
 340 Quinnipiac St., Bldg. 40, Wallingford CT 06492
  
  
 ---------------------------------------------------------------
 Warning -- This program may not be used in any manner that
 competes with the business of Gaussian, Inc. or will provide
 assistance to any competitor of Gaussian, Inc.  The licensee
 of this program is prohibited from giving any competitor of
 Gaussian, Inc. access to this program.  By using this program,
 the user acknowledges that Gaussian, Inc. is engaged in the
 business of creating and licensing software in the field of
 computational chemistry and represents and warrants to the
 licensee that it is not a competitor of Gaussian, Inc. and that
 it will not use this program in any manner prohibited above.
 ---------------------------------------------------------------
  

 Cite this work as:
 Gaussian 16, Revision A.03,
 M. J. Frisch, G. W. Trucks, H. B. Schlegel, G. E. Scuseria, 
 M. A. Robb, J. R. Cheeseman, G. Scalmani, V. Barone, 
 G. A. Petersson, H. Nakatsuji, X. Li, M. Caricato, A. V. Marenich, 
 J. Bloino, B. G. Janesko, R. Gomperts, B. Mennucci, H. P. Hratchian, 
 J. V. Ortiz, A. F. Izmaylov, J. L. Sonnenberg, D. Williams-Young, 
 F. Ding, F. Lipparini, F. Egidi, J. Goings, B. Peng, A. Petrone, 
 T. Henderson, D. Ranasinghe, V. G. Zakrzewski, J. Gao, N. Rega, 
 G. Zheng, W. Liang, M. Hada, M. Ehara, K. Toyota, R. Fukuda, 
 J. Hasegawa, M. Ishida, T. Nakajima, Y. Honda, O. Kitao, H. Nakai, 
 T. Vreven, K. Throssell, J. A. Montgomery, Jr., J. E. Peralta, 
 F. Ogliaro, M. J. Bearpark, J. J. Heyd, E. N. Brothers, K. N. Kudin, 
 V. N. Staroverov, T. A. Keith, R. Kobayashi, J. Normand, 
 K. Raghavachari, A. P. Rendell, J. C. Burant, S. S. Iyengar, 
 J. Tomasi, M. Cossi, J. M. Millam, M. Klene, C. Adamo, R. Cammi, 
 J. W. Ochterski, R. L. Martin, K. Morokuma, O. Farkas, 
 J. B. Foresman, and D. J. Fox, Gaussian, Inc., Wallingford CT, 2016.
 
 ******************************************
 Gaussian 16:  ES64L-G16RevA.03 25-Dec-2016
                12-Jul-2023 
 ******************************************
 %mem=50gb
 %nproc=50
 Will use up to   50 processors via shared memory.
 %chk=MaDA-exo-1-conf-1.chk
 ----------------------------------------------------------------------
 # wb97xd/6-31G(d) opt freq=noraman integral(ultrafinegrid) scrf=(cpcm,
 read,solvent=water)
 ----------------------------------------------------------------------
 1/18=20,19=15,26=6,38=1,40=2/1,3;
 2/9=110,12=2,17=6,18=5,40=1/2;
 3/5=1,6=6,7=1,11=2,25=1,30=1,70=2103,71=1,72=1,74=-58,75=-5/1,2,3;
 4//1;
 5/5=2,38=5,53=1/2;
 6/7=2,8=2,9=2,10=2,28=1/1;
 7//1,2,3,16;
 1/18=20,19=15,26=6/3(2);
 2/9=110/2;
 99//99;
 2/9=110/2;
 3/5=1,6=6,7=1,11=2,25=1,30=1,70=2105,71=1,72=1,74=-58,75=-5/1,2,3;
 4/5=5,16=3,69=1/1;
 5/5=2,38=5,53=1/2;
 7//1,2,3,16;
 1/18=20,19=15,26=6/3(-5);
 2/9=110/2;
 6/7=2,8=2,9=2,10=2,19=2,28=1/1;
 99/9=1/99;
 ----------------------------------------------------------------------
 Candidate Structure: MaDA-exo-1, Conformer: 1, geometry optimization a
 nd frequency calculation with water solvation
 ----------------------------------------------------------------------
 Symbolic Z-matrix:
 Charge =  0 Multiplicity = 1
 C                     9.39912  -2.85108  -9.07995 
 C                     10.51876  -2.01241  -9.24501 
 C                     10.45297  -0.67025  -8.82822 
 C                     9.27224  -0.17336  -8.24539 
 C                     8.14562  -1.00757  -8.06284 
 C                     8.21363  -2.35648  -8.49553 
 C                     6.8752   -0.43273  -7.42049 
 C                     7.12714   0.29007  -6.06168 
 O                     7.14123  -3.19324  -8.36273 
 O                     11.65931  -2.504    -9.81188 
 C                     7.83816  -0.62271  -5.02612 
 C                     8.67702  -0.00064  -3.94891 
 O                     7.61347  -1.83901  -5.03819 
 C                     8.53689  -0.54729  -2.65303 
 C                     9.25464  -0.03045  -1.56205 
 C                     10.15058   1.03486  -1.75017 
 C                     10.34478   1.57542  -3.04474 
 C                     9.61506   1.05226  -4.14602 
 O                     9.85435   1.56933  -5.38889 
 O                     10.82675   1.52716  -0.66966 
 C                     11.33742   2.71822  -3.2522 
 C                     10.679    4.0858   -3.26463 
 C                     11.27749   5.25334  -3.56809 
 C                     10.51569   6.56321  -3.54827 
 C                     12.74124   5.38095  -3.95131 
 O                     7.71607   5.64246  -1.35067 
 C                     6.96997   4.5266   -1.06302 
 C                     6.68234   4.45014   0.28057 
 C                     8.63572   7.50041   0.03939 
 C                     7.92285   6.30701  -0.16069 
 C                     7.29061   5.59598   0.88959 
 C                     7.3998    6.14009   2.19011 
 C                     8.11107   7.33953   2.41661 
 C                     8.72793   8.0183    1.34418 
 C                     6.15896   0.4808   -8.43959 
 C                     4.07891   1.92566  -8.84345 
 C                     5.01931   1.28432  -7.84367 
 C                     4.87279   1.44445  -6.51819 
 C                     5.80013   0.85557  -5.46512 
 O                     5.19812   0.27706  -2.6756 
 C                     6.60346   3.13104  -4.56969 
 C                     6.04176   1.85139  -4.3175 
 C                     5.74749   1.49233  -2.97596 
 C                     6.04293   2.37765  -1.92071 
 C                     6.62923   3.63543  -2.16957 
 C                     6.89072   4.00379  -3.50551 
 O                     9.41342   9.1744    1.56231 
 O                     6.89122   3.55604  -5.83614 
 H                     9.45647  -3.87925  -9.40879 
 H                     11.30008  -0.00933  -8.95026 
 H                     9.24003   0.86175  -7.93745 
 H                     6.18741  -1.25085  -7.20453 
 H                     7.76745   1.13622  -6.28132 
 H                     7.30744  -4.07345  -8.68554 
 H                     12.35393  -1.85514  -9.87936 
 H                     7.84427  -1.35963  -2.48035 
 H                     9.10331  -0.46012  -0.58135 
 H                     10.41652   2.33533  -5.36528 
 H                     10.61363   1.07963   0.14285 
 H                     12.09258   2.7094   -2.46634 
 H                     11.89148   2.56473  -4.17815 
 H                     9.63429   4.09421  -2.98901 
 H                     9.46441   6.41567  -3.30023 
 H                     10.9445   7.24108  -2.80963 
 H                     10.5643   7.04566  -4.52491 
 H                     13.27441   4.43166  -3.91665 
 H                     12.83204   5.77872  -4.96251 
 H                     13.24764   6.06718  -3.27183 
 H                     6.11472   3.68588   0.7923 
 H                     9.09865   7.99897  -0.79967 
 H                     6.93209   5.6291    3.0203 
 H                     8.17488   7.7281    3.42554 
 H                     6.86068   1.19351  -8.87471 
 H                     5.7828   -0.12673  -9.26407 
 H                     3.29251   2.49588  -8.34736 
 H                     4.62658   2.60428  -9.49816 
 H                     3.60363   1.16334  -9.46151 
 H                     4.03959   2.02138  -6.13988 
 H                     5.23192   0.00757  -5.08346 
 H                     5.01688   0.16136  -1.7484 
 H                     5.83566   2.08481  -0.90172 
 H                     7.32932   4.96726  -3.72317 
 H                     9.42041   9.44716   2.47589 
 H                     6.57055   2.96095  -6.50439 
 

 GradGradGradGradGradGradGradGradGradGradGradGradGradGradGradGradGradGrad
 Berny optimization.
 Initialization pass.
                           ----------------------------
                           !    Initial Parameters    !
                           ! (Angstroms and Degrees)  !
 --------------------------                            --------------------------
 ! Name  Definition              Value          Derivative Info.                !
 --------------------------------------------------------------------------------
 ! R1    R(1,2)                  1.4086         estimate D2E/DX2                !
 ! R2    R(1,6)                  1.4112         estimate D2E/DX2                !
 ! R3    R(1,49)                 1.081          estimate D2E/DX2                !
 ! R4    R(2,3)                  1.4069         estimate D2E/DX2                !
 ! R5    R(2,10)                 1.3652         estimate D2E/DX2                !
 ! R6    R(3,4)                  1.4074         estimate D2E/DX2                !
 ! R7    R(3,50)                 1.0813         estimate D2E/DX2                !
 ! R8    R(4,5)                  1.4137         estimate D2E/DX2                !
 ! R9    R(4,51)                 1.0804         estimate D2E/DX2                !
 ! R10   R(5,6)                  1.4182         estimate D2E/DX2                !
 ! R11   R(5,7)                  1.5353         estimate D2E/DX2                !
 ! R12   R(6,9)                  1.3667         estimate D2E/DX2                !
 ! R13   R(7,8)                  1.5596         estimate D2E/DX2                !
 ! R14   R(7,35)                 1.5447         estimate D2E/DX2                !
 ! R15   R(7,52)                 1.0904         estimate D2E/DX2                !
 ! R16   R(8,11)                 1.5528         estimate D2E/DX2                !
 ! R17   R(8,39)                 1.561          estimate D2E/DX2                !
 ! R18   R(8,53)                 1.0836         estimate D2E/DX2                !
 ! R19   R(9,54)                 0.9522         estimate D2E/DX2                !
 ! R20   R(10,55)                0.9529         estimate D2E/DX2                !
 ! R21   R(11,12)                1.5003         estimate D2E/DX2                !
 ! R22   R(11,13)                1.2369         estimate D2E/DX2                !
 ! R23   R(12,14)                1.4134         estimate D2E/DX2                !
 ! R24   R(12,18)                1.4239         estimate D2E/DX2                !
 ! R25   R(14,15)                1.4045         estimate D2E/DX2                !
 ! R26   R(14,56)                1.0814         estimate D2E/DX2                !
 ! R27   R(15,16)                1.4046         estimate D2E/DX2                !
 ! R28   R(15,57)                1.0813         estimate D2E/DX2                !
 ! R29   R(16,17)                1.4163         estimate D2E/DX2                !
 ! R30   R(16,20)                1.3664         estimate D2E/DX2                !
 ! R31   R(17,18)                1.4209         estimate D2E/DX2                !
 ! R32   R(17,21)                1.5279         estimate D2E/DX2                !
 ! R33   R(18,19)                1.3672         estimate D2E/DX2                !
 ! R34   R(19,58)                0.9504         estimate D2E/DX2                !
 ! R35   R(20,59)                0.9518         estimate D2E/DX2                !
 ! R36   R(21,22)                1.5179         estimate D2E/DX2                !
 ! R37   R(21,60)                1.0899         estimate D2E/DX2                !
 ! R38   R(21,61)                1.0899         estimate D2E/DX2                !
 ! R39   R(22,23)                1.3466         estimate D2E/DX2                !
 ! R40   R(22,62)                1.0805         estimate D2E/DX2                !
 ! R41   R(23,24)                1.5154         estimate D2E/DX2                !
 ! R42   R(23,25)                1.5185         estimate D2E/DX2                !
 ! R43   R(24,63)                1.0902         estimate D2E/DX2                !
 ! R44   R(24,64)                1.0904         estimate D2E/DX2                !
 ! R45   R(24,65)                1.0904         estimate D2E/DX2                !
 ! R46   R(25,66)                1.0893         estimate D2E/DX2                !
 ! R47   R(25,67)                1.0904         estimate D2E/DX2                !
 ! R48   R(25,68)                1.0904         estimate D2E/DX2                !
 ! R49   R(26,27)                1.3728         estimate D2E/DX2                !
 ! R50   R(26,30)                1.3786         estimate D2E/DX2                !
 ! R51   R(27,28)                1.3762         estimate D2E/DX2                !
 ! R52   R(27,45)                1.4611         estimate D2E/DX2                !
 ! R53   R(28,31)                1.4331         estimate D2E/DX2                !
 ! R54   R(28,69)                1.0808         estimate D2E/DX2                !
 ! R55   R(29,30)                1.4044         estimate D2E/DX2                !
 ! R56   R(29,34)                1.4068         estimate D2E/DX2                !
 ! R57   R(29,70)                1.0802         estimate D2E/DX2                !
 ! R58   R(30,31)                1.4172         estimate D2E/DX2                !
 ! R59   R(31,32)                1.414          estimate D2E/DX2                !
 ! R60   R(32,33)                1.4128         estimate D2E/DX2                !
 ! R61   R(32,71)                1.0812         estimate D2E/DX2                !
 ! R62   R(33,34)                1.4112         estimate D2E/DX2                !
 ! R63   R(33,72)                1.0831         estimate D2E/DX2                !
 ! R64   R(34,47)                1.3616         estimate D2E/DX2                !
 ! R65   R(35,37)                1.5164         estimate D2E/DX2                !
 ! R66   R(35,73)                1.0907         estimate D2E/DX2                !
 ! R67   R(35,74)                1.091          estimate D2E/DX2                !
 ! R68   R(36,37)                1.515          estimate D2E/DX2                !
 ! R69   R(36,75)                1.0907         estimate D2E/DX2                !
 ! R70   R(36,76)                1.0905         estimate D2E/DX2                !
 ! R71   R(36,77)                1.0904         estimate D2E/DX2                !
 ! R72   R(37,38)                1.3431         estimate D2E/DX2                !
 ! R73   R(38,39)                1.5217         estimate D2E/DX2                !
 ! R74   R(38,78)                1.0818         estimate D2E/DX2                !
 ! R75   R(39,42)                1.5385         estimate D2E/DX2                !
 ! R76   R(39,79)                1.0898         estimate D2E/DX2                !
 ! R77   R(40,43)                1.3671         estimate D2E/DX2                !
 ! R78   R(40,80)                0.9518         estimate D2E/DX2                !
 ! R79   R(41,42)                1.4201         estimate D2E/DX2                !
 ! R80   R(41,46)                1.4059         estimate D2E/DX2                !
 ! R81   R(41,48)                1.3665         estimate D2E/DX2                !
 ! R82   R(42,43)                1.4196         estimate D2E/DX2                !
 ! R83   R(43,44)                1.4088         estimate D2E/DX2                !
 ! R84   R(44,45)                1.4099         estimate D2E/DX2                !
 ! R85   R(44,81)                1.0803         estimate D2E/DX2                !
 ! R86   R(45,46)                1.4103         estimate D2E/DX2                !
 ! R87   R(46,82)                1.0807         estimate D2E/DX2                !
 ! R88   R(47,83)                0.9534         estimate D2E/DX2                !
 ! R89   R(48,84)                0.9505         estimate D2E/DX2                !
 ! A1    A(2,1,6)              120.502          estimate D2E/DX2                !
 ! A2    A(2,1,49)             119.2398         estimate D2E/DX2                !
 ! A3    A(6,1,49)             120.258          estimate D2E/DX2                !
 ! A4    A(1,2,3)              119.7416         estimate D2E/DX2                !
 ! A5    A(1,2,10)             119.8882         estimate D2E/DX2                !
 ! A6    A(3,2,10)             120.3698         estimate D2E/DX2                !
 ! A7    A(2,3,4)              119.9158         estimate D2E/DX2                !
 ! A8    A(2,3,50)             120.8635         estimate D2E/DX2                !
 ! A9    A(4,3,50)             119.2206         estimate D2E/DX2                !
 ! A10   A(3,4,5)              120.9122         estimate D2E/DX2                !
 ! A11   A(3,4,51)             118.7703         estimate D2E/DX2                !
 ! A12   A(5,4,51)             120.3175         estimate D2E/DX2                !
 ! A13   A(4,5,6)              118.9235         estimate D2E/DX2                !
 ! A14   A(4,5,7)              119.5074         estimate D2E/DX2                !
 ! A15   A(6,5,7)              121.5644         estimate D2E/DX2                !
 ! A16   A(1,6,5)              119.9981         estimate D2E/DX2                !
 ! A17   A(1,6,9)              119.0004         estimate D2E/DX2                !
 ! A18   A(5,6,9)              121.0007         estimate D2E/DX2                !
 ! A19   A(5,7,8)              113.8531         estimate D2E/DX2                !
 ! A20   A(5,7,35)             109.2136         estimate D2E/DX2                !
 ! A21   A(5,7,52)             108.8979         estimate D2E/DX2                !
 ! A22   A(8,7,35)             112.0634         estimate D2E/DX2                !
 ! A23   A(8,7,52)             106.0847         estimate D2E/DX2                !
 ! A24   A(35,7,52)            106.3743         estimate D2E/DX2                !
 ! A25   A(7,8,11)             112.4945         estimate D2E/DX2                !
 ! A26   A(7,8,39)             111.3178         estimate D2E/DX2                !
 ! A27   A(7,8,53)             106.3049         estimate D2E/DX2                !
 ! A28   A(11,8,39)            110.326          estimate D2E/DX2                !
 ! A29   A(11,8,53)            108.8824         estimate D2E/DX2                !
 ! A30   A(39,8,53)            107.2722         estimate D2E/DX2                !
 ! A31   A(6,9,54)             113.3326         estimate D2E/DX2                !
 ! A32   A(2,10,55)            113.1532         estimate D2E/DX2                !
 ! A33   A(8,11,12)            119.4139         estimate D2E/DX2                !
 ! A34   A(8,11,13)            119.232          estimate D2E/DX2                !
 ! A35   A(12,11,13)           121.0822         estimate D2E/DX2                !
 ! A36   A(11,12,14)           116.2624         estimate D2E/DX2                !
 ! A37   A(11,12,18)           125.1381         estimate D2E/DX2                !
 ! A38   A(14,12,18)           118.5696         estimate D2E/DX2                !
 ! A39   A(12,14,15)           121.279          estimate D2E/DX2                !
 ! A40   A(12,14,56)           120.0275         estimate D2E/DX2                !
 ! A41   A(15,14,56)           118.6672         estimate D2E/DX2                !
 ! A42   A(14,15,16)           120.0686         estimate D2E/DX2                !
 ! A43   A(14,15,57)           119.1273         estimate D2E/DX2                !
 ! A44   A(16,15,57)           120.8034         estimate D2E/DX2                !
 ! A45   A(15,16,17)           119.9571         estimate D2E/DX2                !
 ! A46   A(15,16,20)           118.8804         estimate D2E/DX2                !
 ! A47   A(17,16,20)           121.1618         estimate D2E/DX2                !
 ! A48   A(16,17,18)           119.8352         estimate D2E/DX2                !
 ! A49   A(16,17,21)           119.9126         estimate D2E/DX2                !
 ! A50   A(18,17,21)           120.2522         estimate D2E/DX2                !
 ! A51   A(12,18,17)           120.2185         estimate D2E/DX2                !
 ! A52   A(12,18,19)           121.3858         estimate D2E/DX2                !
 ! A53   A(17,18,19)           118.3871         estimate D2E/DX2                !
 ! A54   A(18,19,58)           112.689          estimate D2E/DX2                !
 ! A55   A(16,20,59)           113.2565         estimate D2E/DX2                !
 ! A56   A(17,21,22)           113.1537         estimate D2E/DX2                !
 ! A57   A(17,21,60)           110.2545         estimate D2E/DX2                !
 ! A58   A(17,21,61)           109.8947         estimate D2E/DX2                !
 ! A59   A(22,21,60)           108.2853         estimate D2E/DX2                !
 ! A60   A(22,21,61)           109.9031         estimate D2E/DX2                !
 ! A61   A(60,21,61)           105.0225         estimate D2E/DX2                !
 ! A62   A(21,22,23)           126.1724         estimate D2E/DX2                !
 ! A63   A(21,22,62)           115.1089         estimate D2E/DX2                !
 ! A64   A(23,22,62)           118.7147         estimate D2E/DX2                !
 ! A65   A(22,23,24)           121.5366         estimate D2E/DX2                !
 ! A66   A(22,23,25)           123.9283         estimate D2E/DX2                !
 ! A67   A(24,23,25)           114.5351         estimate D2E/DX2                !
 ! A68   A(23,24,63)           111.7626         estimate D2E/DX2                !
 ! A69   A(23,24,64)           110.3965         estimate D2E/DX2                !
 ! A70   A(23,24,65)           110.3844         estimate D2E/DX2                !
 ! A71   A(63,24,64)           108.0133         estimate D2E/DX2                !
 ! A72   A(63,24,65)           107.8581         estimate D2E/DX2                !
 ! A73   A(64,24,65)           108.3092         estimate D2E/DX2                !
 ! A74   A(23,25,66)           112.9886         estimate D2E/DX2                !
 ! A75   A(23,25,67)           110.1798         estimate D2E/DX2                !
 ! A76   A(23,25,68)           110.0776         estimate D2E/DX2                !
 ! A77   A(66,25,67)           107.8572         estimate D2E/DX2                !
 ! A78   A(66,25,68)           107.5353         estimate D2E/DX2                !
 ! A79   A(67,25,68)           108.0371         estimate D2E/DX2                !
 ! A80   A(27,26,30)           107.0072         estimate D2E/DX2                !
 ! A81   A(26,27,28)           111.3052         estimate D2E/DX2                !
 ! A82   A(26,27,45)           117.6358         estimate D2E/DX2                !
 ! A83   A(28,27,45)           131.0555         estimate D2E/DX2                !
 ! A84   A(27,28,31)           106.3655         estimate D2E/DX2                !
 ! A85   A(27,28,69)           127.6852         estimate D2E/DX2                !
 ! A86   A(31,28,69)           125.9492         estimate D2E/DX2                !
 ! A87   A(30,29,34)           118.5689         estimate D2E/DX2                !
 ! A88   A(30,29,70)           119.9373         estimate D2E/DX2                !
 ! A89   A(34,29,70)           121.4938         estimate D2E/DX2                !
 ! A90   A(26,30,29)           127.4984         estimate D2E/DX2                !
 ! A91   A(26,30,31)           109.3263         estimate D2E/DX2                !
 ! A92   A(29,30,31)           123.1752         estimate D2E/DX2                !
 ! A93   A(28,31,30)           105.9954         estimate D2E/DX2                !
 ! A94   A(28,31,32)           136.9961         estimate D2E/DX2                !
 ! A95   A(30,31,32)           117.0085         estimate D2E/DX2                !
 ! A96   A(31,32,33)           120.867          estimate D2E/DX2                !
 ! A97   A(31,32,71)           119.4027         estimate D2E/DX2                !
 ! A98   A(33,32,71)           119.7303         estimate D2E/DX2                !
 ! A99   A(32,33,34)           120.4385         estimate D2E/DX2                !
 ! A100  A(32,33,72)           118.9218         estimate D2E/DX2                !
 ! A101  A(34,33,72)           120.6396         estimate D2E/DX2                !
 ! A102  A(29,34,33)           119.9418         estimate D2E/DX2                !
 ! A103  A(29,34,47)           119.613          estimate D2E/DX2                !
 ! A104  A(33,34,47)           120.4452         estimate D2E/DX2                !
 ! A105  A(7,35,37)            113.739          estimate D2E/DX2                !
 ! A106  A(7,35,73)            110.5673         estimate D2E/DX2                !
 ! A107  A(7,35,74)            109.2149         estimate D2E/DX2                !
 ! A108  A(37,35,73)           107.0994         estimate D2E/DX2                !
 ! A109  A(37,35,74)           109.4456         estimate D2E/DX2                !
 ! A110  A(73,35,74)           106.5112         estimate D2E/DX2                !
 ! A111  A(37,36,75)           111.635          estimate D2E/DX2                !
 ! A112  A(37,36,76)           110.3593         estimate D2E/DX2                !
 ! A113  A(37,36,77)           110.4049         estimate D2E/DX2                !
 ! A114  A(75,36,76)           108.0495         estimate D2E/DX2                !
 ! A115  A(75,36,77)           108.0011         estimate D2E/DX2                !
 ! A116  A(76,36,77)           108.2805         estimate D2E/DX2                !
 ! A117  A(35,37,36)           115.561          estimate D2E/DX2                !
 ! A118  A(35,37,38)           122.2064         estimate D2E/DX2                !
 ! A119  A(36,37,38)           122.2124         estimate D2E/DX2                !
 ! A120  A(37,38,39)           124.7714         estimate D2E/DX2                !
 ! A121  A(37,38,78)           119.5207         estimate D2E/DX2                !
 ! A122  A(39,38,78)           115.7056         estimate D2E/DX2                !
 ! A123  A(8,39,38)            113.1903         estimate D2E/DX2                !
 ! A124  A(8,39,42)            112.7081         estimate D2E/DX2                !
 ! A125  A(8,39,79)            107.1683         estimate D2E/DX2                !
 ! A126  A(38,39,42)           111.1879         estimate D2E/DX2                !
 ! A127  A(38,39,79)           103.0467         estimate D2E/DX2                !
 ! A128  A(42,39,79)           108.9235         estimate D2E/DX2                !
 ! A129  A(43,40,80)           113.4915         estimate D2E/DX2                !
 ! A130  A(42,41,46)           120.3822         estimate D2E/DX2                !
 ! A131  A(42,41,48)           121.88           estimate D2E/DX2                !
 ! A132  A(46,41,48)           117.7365         estimate D2E/DX2                !
 ! A133  A(39,42,41)           120.8571         estimate D2E/DX2                !
 ! A134  A(39,42,43)           120.5735         estimate D2E/DX2                !
 ! A135  A(41,42,43)           118.5379         estimate D2E/DX2                !
 ! A136  A(40,43,42)           121.0492         estimate D2E/DX2                !
 ! A137  A(40,43,44)           118.5777         estimate D2E/DX2                !
 ! A138  A(42,43,44)           120.3612         estimate D2E/DX2                !
 ! A139  A(43,44,45)           121.0403         estimate D2E/DX2                !
 ! A140  A(43,44,81)           119.7329         estimate D2E/DX2                !
 ! A141  A(45,44,81)           119.2169         estimate D2E/DX2                !
 ! A142  A(27,45,44)           120.4944         estimate D2E/DX2                !
 ! A143  A(27,45,46)           120.9896         estimate D2E/DX2                !
 ! A144  A(44,45,46)           118.5124         estimate D2E/DX2                !
 ! A145  A(41,46,45)           121.1314         estimate D2E/DX2                !
 ! A146  A(41,46,82)           118.9385         estimate D2E/DX2                !
 ! A147  A(45,46,82)           119.9267         estimate D2E/DX2                !
 ! A148  A(34,47,83)           113.5833         estimate D2E/DX2                !
 ! A149  A(41,48,84)           112.6933         estimate D2E/DX2                !
 ! D1    D(6,1,2,3)             -0.2202         estimate D2E/DX2                !
 ! D2    D(6,1,2,10)           179.9973         estimate D2E/DX2                !
 ! D3    D(49,1,2,3)           179.6147         estimate D2E/DX2                !
 ! D4    D(49,1,2,10)           -0.1678         estimate D2E/DX2                !
 ! D5    D(2,1,6,5)             -0.3325         estimate D2E/DX2                !
 ! D6    D(2,1,6,9)            179.3339         estimate D2E/DX2                !
 ! D7    D(49,1,6,5)           179.8343         estimate D2E/DX2                !
 ! D8    D(49,1,6,9)            -0.4993         estimate D2E/DX2                !
 ! D9    D(1,2,3,4)              0.1974         estimate D2E/DX2                !
 ! D10   D(1,2,3,50)          -179.7271         estimate D2E/DX2                !
 ! D11   D(10,2,3,4)           179.9789         estimate D2E/DX2                !
 ! D12   D(10,2,3,50)            0.0543         estimate D2E/DX2                !
 ! D13   D(1,2,10,55)          179.8127         estimate D2E/DX2                !
 ! D14   D(3,2,10,55)            0.0316         estimate D2E/DX2                !
 ! D15   D(2,3,4,5)              0.3821         estimate D2E/DX2                !
 ! D16   D(2,3,4,51)          -179.6375         estimate D2E/DX2                !
 ! D17   D(50,3,4,5)          -179.6921         estimate D2E/DX2                !
 ! D18   D(50,3,4,51)            0.2883         estimate D2E/DX2                !
 ! D19   D(3,4,5,6)             -0.9245         estimate D2E/DX2                !
 ! D20   D(3,4,5,7)            179.8538         estimate D2E/DX2                !
 ! D21   D(51,4,5,6)           179.0954         estimate D2E/DX2                !
 ! D22   D(51,4,5,7)            -0.1263         estimate D2E/DX2                !
 ! D23   D(4,5,6,1)              0.8943         estimate D2E/DX2                !
 ! D24   D(4,5,6,9)           -178.7653         estimate D2E/DX2                !
 ! D25   D(7,5,6,1)           -179.9006         estimate D2E/DX2                !
 ! D26   D(7,5,6,9)              0.4398         estimate D2E/DX2                !
 ! D27   D(4,5,7,8)            -52.1042         estimate D2E/DX2                !
 ! D28   D(4,5,7,35)            73.9842         estimate D2E/DX2                !
 ! D29   D(4,5,7,52)          -170.2398         estimate D2E/DX2                !
 ! D30   D(6,5,7,8)            128.6953         estimate D2E/DX2                !
 ! D31   D(6,5,7,35)          -105.2163         estimate D2E/DX2                !
 ! D32   D(6,5,7,52)            10.5597         estimate D2E/DX2                !
 ! D33   D(1,6,9,54)             0.5381         estimate D2E/DX2                !
 ! D34   D(5,6,9,54)          -179.7989         estimate D2E/DX2                !
 ! D35   D(5,7,8,11)           -55.8215         estimate D2E/DX2                !
 ! D36   D(5,7,8,39)           179.7639         estimate D2E/DX2                !
 ! D37   D(5,7,8,53)            63.2621         estimate D2E/DX2                !
 ! D38   D(35,7,8,11)          179.6045         estimate D2E/DX2                !
 ! D39   D(35,7,8,39)           55.1898         estimate D2E/DX2                !
 ! D40   D(35,7,8,53)          -61.3119         estimate D2E/DX2                !
 ! D41   D(52,7,8,11)           63.9178         estimate D2E/DX2                !
 ! D42   D(52,7,8,39)          -60.4969         estimate D2E/DX2                !
 ! D43   D(52,7,8,53)         -176.9986         estimate D2E/DX2                !
 ! D44   D(5,7,35,37)         -170.3732         estimate D2E/DX2                !
 ! D45   D(5,7,35,73)          -49.8363         estimate D2E/DX2                !
 ! D46   D(5,7,35,74)           67.0509         estimate D2E/DX2                !
 ! D47   D(8,7,35,37)          -43.2638         estimate D2E/DX2                !
 ! D48   D(8,7,35,73)           77.2731         estimate D2E/DX2                !
 ! D49   D(8,7,35,74)         -165.8397         estimate D2E/DX2                !
 ! D50   D(52,7,35,37)          72.247          estimate D2E/DX2                !
 ! D51   D(52,7,35,73)        -167.2161         estimate D2E/DX2                !
 ! D52   D(52,7,35,74)         -50.3289         estimate D2E/DX2                !
 ! D53   D(7,8,11,12)          153.4791         estimate D2E/DX2                !
 ! D54   D(7,8,11,13)          -32.4448         estimate D2E/DX2                !
 ! D55   D(39,8,11,12)         -81.5612         estimate D2E/DX2                !
 ! D56   D(39,8,11,13)          92.5149         estimate D2E/DX2                !
 ! D57   D(53,8,11,12)          35.912          estimate D2E/DX2                !
 ! D58   D(53,8,11,13)        -150.0119         estimate D2E/DX2                !
 ! D59   D(7,8,39,38)          -39.0307         estimate D2E/DX2                !
 ! D60   D(7,8,39,42)         -166.2965         estimate D2E/DX2                !
 ! D61   D(7,8,39,79)           73.886          estimate D2E/DX2                !
 ! D62   D(11,8,39,38)        -164.6589         estimate D2E/DX2                !
 ! D63   D(11,8,39,42)          68.0754         estimate D2E/DX2                !
 ! D64   D(11,8,39,79)         -51.7421         estimate D2E/DX2                !
 ! D65   D(53,8,39,38)          76.878          estimate D2E/DX2                !
 ! D66   D(53,8,39,42)         -50.3877         estimate D2E/DX2                !
 ! D67   D(53,8,39,79)        -170.2052         estimate D2E/DX2                !
 ! D68   D(8,11,12,14)         137.5161         estimate D2E/DX2                !
 ! D69   D(8,11,12,18)         -44.509          estimate D2E/DX2                !
 ! D70   D(13,11,12,14)        -36.4474         estimate D2E/DX2                !
 ! D71   D(13,11,12,18)        141.5275         estimate D2E/DX2                !
 ! D72   D(11,12,14,15)       -178.9009         estimate D2E/DX2                !
 ! D73   D(11,12,14,56)         -0.7931         estimate D2E/DX2                !
 ! D74   D(18,12,14,15)          2.9847         estimate D2E/DX2                !
 ! D75   D(18,12,14,56)       -178.9075         estimate D2E/DX2                !
 ! D76   D(11,12,18,17)        179.2496         estimate D2E/DX2                !
 ! D77   D(11,12,18,19)         -1.834          estimate D2E/DX2                !
 ! D78   D(14,12,18,17)         -2.8183         estimate D2E/DX2                !
 ! D79   D(14,12,18,19)        176.0981         estimate D2E/DX2                !
 ! D80   D(12,14,15,16)         -1.1347         estimate D2E/DX2                !
 ! D81   D(12,14,15,57)        178.5689         estimate D2E/DX2                !
 ! D82   D(56,14,15,16)       -179.2676         estimate D2E/DX2                !
 ! D83   D(56,14,15,57)          0.4359         estimate D2E/DX2                !
 ! D84   D(14,15,16,17)         -0.92           estimate D2E/DX2                !
 ! D85   D(14,15,16,20)        179.3855         estimate D2E/DX2                !
 ! D86   D(57,15,16,17)        179.3815         estimate D2E/DX2                !
 ! D87   D(57,15,16,20)         -0.313          estimate D2E/DX2                !
 ! D88   D(15,16,17,18)          1.0508         estimate D2E/DX2                !
 ! D89   D(15,16,17,21)       -178.9492         estimate D2E/DX2                !
 ! D90   D(20,16,17,18)       -179.2618         estimate D2E/DX2                !
 ! D91   D(20,16,17,21)          0.7381         estimate D2E/DX2                !
 ! D92   D(15,16,20,59)         -0.0699         estimate D2E/DX2                !
 ! D93   D(17,16,20,59)       -179.7606         estimate D2E/DX2                !
 ! D94   D(16,17,18,12)          0.8438         estimate D2E/DX2                !
 ! D95   D(16,17,18,19)       -178.1048         estimate D2E/DX2                !
 ! D96   D(21,17,18,12)       -179.1561         estimate D2E/DX2                !
 ! D97   D(21,17,18,19)          1.8953         estimate D2E/DX2                !
 ! D98   D(16,17,21,22)        -96.9047         estimate D2E/DX2                !
 ! D99   D(16,17,21,60)         24.5302         estimate D2E/DX2                !
 ! D100  D(16,17,21,61)        139.8303         estimate D2E/DX2                !
 ! D101  D(18,17,21,22)         83.0952         estimate D2E/DX2                !
 ! D102  D(18,17,21,60)       -155.4699         estimate D2E/DX2                !
 ! D103  D(18,17,21,61)        -40.1698         estimate D2E/DX2                !
 ! D104  D(12,18,19,58)        172.7448         estimate D2E/DX2                !
 ! D105  D(17,18,19,58)         -8.3195         estimate D2E/DX2                !
 ! D106  D(17,21,22,23)       -172.4365         estimate D2E/DX2                !
 ! D107  D(17,21,22,62)          8.3025         estimate D2E/DX2                !
 ! D108  D(60,21,22,23)         65.0262         estimate D2E/DX2                !
 ! D109  D(60,21,22,62)       -114.2348         estimate D2E/DX2                !
 ! D110  D(61,21,22,23)        -49.1761         estimate D2E/DX2                !
 ! D111  D(61,21,22,62)        131.5629         estimate D2E/DX2                !
 ! D112  D(21,22,23,24)        179.9417         estimate D2E/DX2                !
 ! D113  D(21,22,23,25)         -0.1214         estimate D2E/DX2                !
 ! D114  D(62,22,23,24)         -0.8213         estimate D2E/DX2                !
 ! D115  D(62,22,23,25)        179.1156         estimate D2E/DX2                !
 ! D116  D(22,23,24,63)         -1.936          estimate D2E/DX2                !
 ! D117  D(22,23,24,64)        118.3078         estimate D2E/DX2                !
 ! D118  D(22,23,24,65)       -121.9753         estimate D2E/DX2                !
 ! D119  D(25,23,24,63)        178.1216         estimate D2E/DX2                !
 ! D120  D(25,23,24,64)        -61.6346         estimate D2E/DX2                !
 ! D121  D(25,23,24,65)         58.0823         estimate D2E/DX2                !
 ! D122  D(22,23,25,66)         -2.3765         estimate D2E/DX2                !
 ! D123  D(22,23,25,67)        118.3409         estimate D2E/DX2                !
 ! D124  D(22,23,25,68)       -122.6099         estimate D2E/DX2                !
 ! D125  D(24,23,25,66)        177.5643         estimate D2E/DX2                !
 ! D126  D(24,23,25,67)        -61.7182         estimate D2E/DX2                !
 ! D127  D(24,23,25,68)         57.3309         estimate D2E/DX2                !
 ! D128  D(30,26,27,28)          0.2055         estimate D2E/DX2                !
 ! D129  D(30,26,27,45)       -179.1854         estimate D2E/DX2                !
 ! D130  D(27,26,30,29)        179.8482         estimate D2E/DX2                !
 ! D131  D(27,26,30,31)         -0.1987         estimate D2E/DX2                !
 ! D132  D(26,27,28,31)         -0.1291         estimate D2E/DX2                !
 ! D133  D(26,27,28,69)        179.9784         estimate D2E/DX2                !
 ! D134  D(45,27,28,31)        179.1552         estimate D2E/DX2                !
 ! D135  D(45,27,28,69)         -0.7373         estimate D2E/DX2                !
 ! D136  D(26,27,45,44)        170.4449         estimate D2E/DX2                !
 ! D137  D(26,27,45,46)         -8.8533         estimate D2E/DX2                !
 ! D138  D(28,27,45,44)         -8.8024         estimate D2E/DX2                !
 ! D139  D(28,27,45,46)        171.8994         estimate D2E/DX2                !
 ! D140  D(27,28,31,30)          0.0035         estimate D2E/DX2                !
 ! D141  D(27,28,31,32)       -179.958          estimate D2E/DX2                !
 ! D142  D(69,28,31,30)        179.8983         estimate D2E/DX2                !
 ! D143  D(69,28,31,32)         -0.0631         estimate D2E/DX2                !
 ! D144  D(34,29,30,26)        179.9075         estimate D2E/DX2                !
 ! D145  D(34,29,30,31)         -0.0396         estimate D2E/DX2                !
 ! D146  D(70,29,30,26)         -0.1246         estimate D2E/DX2                !
 ! D147  D(70,29,30,31)        179.9283         estimate D2E/DX2                !
 ! D148  D(30,29,34,33)          0.0034         estimate D2E/DX2                !
 ! D149  D(30,29,34,47)       -179.9693         estimate D2E/DX2                !
 ! D150  D(70,29,34,33)       -179.964          estimate D2E/DX2                !
 ! D151  D(70,29,34,47)          0.0633         estimate D2E/DX2                !
 ! D152  D(26,30,31,28)          0.1212         estimate D2E/DX2                !
 ! D153  D(26,30,31,32)       -179.9083         estimate D2E/DX2                !
 ! D154  D(29,30,31,28)       -179.9232         estimate D2E/DX2                !
 ! D155  D(29,30,31,32)          0.0472         estimate D2E/DX2                !
 ! D156  D(28,31,32,33)        179.939          estimate D2E/DX2                !
 ! D157  D(28,31,32,71)         -0.0372         estimate D2E/DX2                !
 ! D158  D(30,31,32,33)         -0.0194         estimate D2E/DX2                !
 ! D159  D(30,31,32,71)       -179.9956         estimate D2E/DX2                !
 ! D160  D(31,32,33,34)         -0.0145         estimate D2E/DX2                !
 ! D161  D(31,32,33,72)       -179.9941         estimate D2E/DX2                !
 ! D162  D(71,32,33,34)        179.9617         estimate D2E/DX2                !
 ! D163  D(71,32,33,72)         -0.018          estimate D2E/DX2                !
 ! D164  D(32,33,34,29)          0.0229         estimate D2E/DX2                !
 ! D165  D(32,33,34,47)        179.9953         estimate D2E/DX2                !
 ! D166  D(72,33,34,29)       -179.9978         estimate D2E/DX2                !
 ! D167  D(72,33,34,47)         -0.0254         estimate D2E/DX2                !
 ! D168  D(29,34,47,83)        179.9293         estimate D2E/DX2                !
 ! D169  D(33,34,47,83)         -0.0433         estimate D2E/DX2                !
 ! D170  D(7,35,37,36)        -165.5983         estimate D2E/DX2                !
 ! D171  D(7,35,37,38)          16.0002         estimate D2E/DX2                !
 ! D172  D(73,35,37,36)         71.9344         estimate D2E/DX2                !
 ! D173  D(73,35,37,38)       -106.4672         estimate D2E/DX2                !
 ! D174  D(74,35,37,36)        -43.1493         estimate D2E/DX2                !
 ! D175  D(74,35,37,38)        138.4491         estimate D2E/DX2                !
 ! D176  D(75,36,37,35)       -179.3267         estimate D2E/DX2                !
 ! D177  D(75,36,37,38)         -0.9252         estimate D2E/DX2                !
 ! D178  D(76,36,37,35)        -59.1468         estimate D2E/DX2                !
 ! D179  D(76,36,37,38)        119.2547         estimate D2E/DX2                !
 ! D180  D(77,36,37,35)         60.5237         estimate D2E/DX2                !
 ! D181  D(77,36,37,38)       -121.0748         estimate D2E/DX2                !
 ! D182  D(35,37,38,39)         -0.1902         estimate D2E/DX2                !
 ! D183  D(35,37,38,78)       -179.6022         estimate D2E/DX2                !
 ! D184  D(36,37,38,39)       -178.4859         estimate D2E/DX2                !
 ! D185  D(36,37,38,78)          2.1021         estimate D2E/DX2                !
 ! D186  D(37,38,39,8)          12.3274         estimate D2E/DX2                !
 ! D187  D(37,38,39,42)        140.3869         estimate D2E/DX2                !
 ! D188  D(37,38,39,79)       -103.0707         estimate D2E/DX2                !
 ! D189  D(78,38,39,8)        -168.2404         estimate D2E/DX2                !
 ! D190  D(78,38,39,42)        -40.1809         estimate D2E/DX2                !
 ! D191  D(78,38,39,79)         76.3615         estimate D2E/DX2                !
 ! D192  D(8,39,42,41)          69.6282         estimate D2E/DX2                !
 ! D193  D(8,39,42,43)        -108.3003         estimate D2E/DX2                !
 ! D194  D(38,39,42,41)        -58.6908         estimate D2E/DX2                !
 ! D195  D(38,39,42,43)        123.3807         estimate D2E/DX2                !
 ! D196  D(79,39,42,41)       -171.5731         estimate D2E/DX2                !
 ! D197  D(79,39,42,43)         10.4984         estimate D2E/DX2                !
 ! D198  D(80,40,43,42)       -177.9386         estimate D2E/DX2                !
 ! D199  D(80,40,43,44)          3.3088         estimate D2E/DX2                !
 ! D200  D(46,41,42,39)       -176.3601         estimate D2E/DX2                !
 ! D201  D(46,41,42,43)          1.6098         estimate D2E/DX2                !
 ! D202  D(48,41,42,39)          3.208          estimate D2E/DX2                !
 ! D203  D(48,41,42,43)       -178.8222         estimate D2E/DX2                !
 ! D204  D(42,41,46,45)         -0.0815         estimate D2E/DX2                !
 ! D205  D(42,41,46,82)        179.2472         estimate D2E/DX2                !
 ! D206  D(48,41,46,45)       -179.667          estimate D2E/DX2                !
 ! D207  D(48,41,46,82)         -0.3384         estimate D2E/DX2                !
 ! D208  D(42,41,48,84)          7.6245         estimate D2E/DX2                !
 ! D209  D(46,41,48,84)       -172.7965         estimate D2E/DX2                !
 ! D210  D(39,42,43,40)         -2.4459         estimate D2E/DX2                !
 ! D211  D(39,42,43,44)        176.2844         estimate D2E/DX2                !
 ! D212  D(41,42,43,40)        179.5782         estimate D2E/DX2                !
 ! D213  D(41,42,43,44)         -1.6914         estimate D2E/DX2                !
 ! D214  D(40,43,44,45)        179.0099         estimate D2E/DX2                !
 ! D215  D(40,43,44,81)          0.1656         estimate D2E/DX2                !
 ! D216  D(42,43,44,45)          0.2485         estimate D2E/DX2                !
 ! D217  D(42,43,44,81)       -178.5958         estimate D2E/DX2                !
 ! D218  D(43,44,45,27)       -178.0304         estimate D2E/DX2                !
 ! D219  D(43,44,45,46)          1.2849         estimate D2E/DX2                !
 ! D220  D(81,44,45,27)          0.8197         estimate D2E/DX2                !
 ! D221  D(81,44,45,46)       -179.865          estimate D2E/DX2                !
 ! D222  D(27,45,46,41)        177.9425         estimate D2E/DX2                !
 ! D223  D(27,45,46,82)         -1.3796         estimate D2E/DX2                !
 ! D224  D(44,45,46,41)         -1.3693         estimate D2E/DX2                !
 ! D225  D(44,45,46,82)        179.3086         estimate D2E/DX2                !
 --------------------------------------------------------------------------------
 Trust Radius=3.00D-01 FncErr=5.00D-06 GrdErr=5.00D-06 EigMax=2.50D+02 EigMin=1.00D-04
 Number of steps in this run=    473 maximum allowed number of steps=    504.
 GradGradGradGradGradGradGradGradGradGradGradGradGradGradGradGradGradGrad

 Stoichiometry    C39H36O9
 Framework group  C1[X(C39H36O9)]
 Deg. of freedom   246
 Full point group                 C1      NOp   1
 Largest Abelian subgroup         C1      NOp   1
 Largest concise Abelian subgroup C1      NOp   1
                         Standard orientation:                         
 ---------------------------------------------------------------------
 Center     Atomic      Atomic             Coordinates (Angstroms)
 Number     Number       Type             X           Y           Z
 ---------------------------------------------------------------------
      1          6           0        7.027998    1.434217    0.456164
      2          6           0        6.542039    2.577685   -0.207565
      3          6           0        5.335691    2.506599   -0.928052
      4          6           0        4.618806    1.296557   -0.978974
      5          6           0        5.089116    0.144970   -0.307279
      6          6           0        6.311670    0.219275    0.407718
      7          6           0        4.279516   -1.157347   -0.381684
      8          6           0        2.778217   -0.989688    0.005974
      9          8           0        6.818316   -0.874749    1.051358
     10          8           0        7.245180    3.746612   -0.152361
     11          6           0        2.594853   -0.370655    1.418161
     12          6           0        1.345772    0.400556    1.728109
     13          8           0        3.428905   -0.615782    2.298098
     14          6           0        0.758645    0.158823    2.990890
     15          6           0       -0.425109    0.806373    3.380662
     16          6           0       -1.036942    1.732456    2.519840
     17          6           0       -0.448899    2.027909    1.265748
     18          6           0        0.747209    1.369046    0.873046
     19          8           0        1.310884    1.705369   -0.326325
     20          8           0       -2.194787    2.338839    2.918278
     21          6           0       -1.102331    3.053209    0.340458
     22          6           0       -1.983802    2.422073   -0.721903
     23          6           0       -2.566715    3.061553   -1.753755
     24          6           0       -3.429152    2.323980   -2.758091
     25          6           0       -2.428108    4.550904   -2.015137
     26          8           0       -4.324804   -0.640934   -0.777636
     27          6           0       -3.758852   -1.425568    0.196316
     28          6           0       -4.690737   -1.809343    1.133410
     29          6           0       -6.637934    0.210848   -1.169900
     30          6           0       -5.660171   -0.507357   -0.462392
     31          6           0       -5.935140   -1.225383    0.728081
     32          6           0       -7.267585   -1.199157    1.200534
     33          6           0       -8.268900   -0.484305    0.506106
     34          6           0       -7.955262    0.219365   -0.676194
     35          6           0        4.450403   -1.782748   -1.783742
     36          6           0        3.864750   -3.802465   -3.251768
     37          6           0        3.516447   -2.947232   -2.050728
     38          6           0        2.433515   -3.184725   -1.292535
     39          6           0        2.011093   -2.345362   -0.095570
     40          8           0        0.358150   -3.154508    2.160890
     41          6           0       -0.211152   -1.566886   -1.135042
     42          6           0        0.483434   -2.168047   -0.052091
     43          6           0       -0.257076   -2.563377    1.092732
     44          6           0       -1.644395   -2.327825    1.159674
     45          6           0       -2.327781   -1.702766    0.096664
     46          6           0       -1.596321   -1.340351   -1.053311
     47          8           0       -8.920259    0.908317   -1.345656
     48          8           0        0.429778   -1.182199   -2.278950
     49          1           0        7.958927    1.496287    1.002139
     50          1           0        4.948211    3.372012   -1.447892
     51          1           0        3.697679    1.261180   -1.542519
     52          1           0        4.696435   -1.873369    0.327194
     53          1           0        2.347152   -0.320249   -0.729043
     54          1           0        7.641093   -0.701876    1.498317
     55          1           0        6.831596    4.455841   -0.636104
     56          1           0        1.203933   -0.558843    3.666254
     57          1           0       -0.856867    0.577982    4.345397
     58          1           0        0.756650    2.278146   -0.844114
     59          1           0       -2.487515    2.060463    3.780072
     60          1           0       -1.709027    3.750301    0.918300
     61          1           0       -0.336270    3.668847   -0.130775
     62          1           0       -2.151037    1.360727   -0.607699
     63          1           0       -3.471072    1.255238   -2.547101
     64          1           0       -4.448291    2.711323   -2.740809
     65          1           0       -3.031622    2.450589   -3.765508
     66          1           0       -1.838611    5.063076   -1.255664
     67          1           0       -1.949897    4.720518   -2.980291
     68          1           0       -3.412205    5.019980   -2.038852
     69          1           0       -4.533849   -2.425580    2.007359
     70          1           0       -6.369941    0.741170   -2.072033
     71          1           0       -7.520483   -1.733837    2.105658
     72          1           0       -9.279249   -0.485413    0.896226
     73          1           0        4.265911   -1.039144   -2.560086
     74          1           0        5.483764   -2.110210   -1.907326
     75          1           0        3.146858   -4.611750   -3.390951
     76          1           0        3.871993   -3.197495   -4.159005
     77          1           0        4.853153   -4.246244   -3.128688
     78          1           0        1.800238   -4.032188   -1.518266
     79          1           0        2.320503   -2.954441    0.753503
     80          1           0       -0.243408   -3.403269    2.855275
     81          1           0       -2.194027   -2.612260    2.045138
     82          1           0       -2.099351   -0.870113   -1.886284
     83          1           0       -9.779994    0.855234   -0.936875
     84          1           0        1.336859   -1.465211   -2.303958
 ---------------------------------------------------------------------
 Rotational constants (GHZ):           0.1169762           0.0363906           0.0337196
 Standard basis: 6-31G(d) (6D, 7F)
 There are   792 symmetry adapted cartesian basis functions of A   symmetry.
 There are   792 symmetry adapted basis functions of A   symmetry.
   792 basis functions,  1488 primitive gaussians,   792 cartesian basis functions
   171 alpha electrons      171 beta electrons
       nuclear repulsion energy      6166.7647490744 Hartrees.
 NAtoms=   84 NActive=   84 NUniq=   84 SFac= 1.00D+00 NAtFMM=   60 NAOKFM=T Big=T
 Integral buffers will be    131072 words long.
 Raffenetti 2 integral format.
 Two-electron integral symmetry is turned on.
 Nuclear repulsion after empirical dispersion term =     6166.6811641136 Hartrees.
 Using the following non-standard input for PCM:
 --- end of non-standard input.
 ------------------------------------------------------------------------------
 Polarizable Continuum Model (PCM)
 =================================
 Model                : C-PCM.
 Atomic radii         : UFF (Universal Force Field).
 Polarization charges : Total charges.
 Charge compensation  : None.
 Solution method      : On-the-fly selection.
 Cavity type          : Scaled VdW (van der Waals Surface) (Alpha=1.100).
 Cavity algorithm     : GePol (No added spheres)
                        Default sphere list used, NSphG=   84.
                        Lebedev-Laikov grids with approx.  5.0 points / Ang**2.
                        Smoothing algorithm: York/Karplus (Gamma=1.0000).
                        Polarization charges: spherical gaussians, with
                                              point-specific exponents (IZeta= 3).
                        Self-potential: point-specific (ISelfS= 7).
                        Self-field    : sphere-specific E.n sum rule (ISelfD= 2).
 1st derivatives      : Analytical E(r).r(x)/FMM algorithm (CHGder, D1EAlg=3).
                        Cavity 1st derivative terms included.
 Solvent              : Water, Eps=  78.355300 Eps(inf)=   1.777849
 ------------------------------------------------------------------------------
 One-electron integrals computed using PRISM.
 NBasis=   792 RedAO= T EigKep=  3.39D-04  NBF=   792
 NBsUse=   792 1.00D-06 EigRej= -1.00D+00 NBFU=   792
 ExpMin= 1.61D-01 ExpMax= 5.48D+03 ExpMxC= 8.25D+02 IAcc=3 IRadAn=         5 AccDes= 0.00D+00
 Harris functional with IExCor= 4639 and IRadAn=       5 diagonalized for initial guess.
 HarFok:  IExCor= 4639 AccDes= 0.00D+00 IRadAn=         5 IDoV= 1 UseB2=F ITyADJ=14
 ICtDFT=  3500011 ScaDFX=  1.000000  1.000000  1.000000  1.000000
 FoFCou: FMM=F IPFlag=           0 FMFlag=      100000 FMFlg1=        2001
         NFxFlg=           0 DoJE=T BraDBF=F KetDBF=T FulRan=T
         wScrn=  0.000000 ICntrl=       500 IOpCl=  0 I1Cent=   200000004 NGrid=           0
         NMat0=    1 NMatS0=      1 NMatT0=    0 NMatD0=    1 NMtDS0=    0 NMtDT0=    0
 Petite list used in FoFCou.
 Requested convergence on RMS density matrix=1.00D-08 within 128 cycles.
 Requested convergence on MAX density matrix=1.00D-06.
 Requested convergence on             energy=1.00D-06.
 No special actions if energy rises.
 Inv3:  Mode=1 IEnd=    93275328.
 Iteration    1 A*A^-1 deviation from unit magnitude is 3.33D-15 for     98.
 Iteration    1 A*A^-1 deviation from orthogonality  is 2.30D-15 for   1886   1092.
 Iteration    1 A^-1*A deviation from unit magnitude is 3.33D-15 for     98.
 Iteration    1 A^-1*A deviation from orthogonality  is 2.55D-15 for   3307    120.
 Error on total polarization charges =  0.01125
 SCF Done:  E(RwB97XD) =  -2184.14872660     A.U. after   14 cycles
            NFock= 14  Conv=0.60D-08     -V/T= 2.0096

 **********************************************************************

            Population analysis using the SCF density.

 **********************************************************************

 Orbital symmetries:
       Occupied  (A) (A) (A) (A) (A) (A) (A) (A) (A) (A) (A) (A)
                 (A) (A) (A) (A) (A) (A) (A) (A) (A) (A) (A) (A)
                 (A) (A) (A) (A) (A) (A) (A) (A) (A) (A) (A) (A)
                 (A) (A) (A) (A) (A) (A) (A) (A) (A) (A) (A) (A)
                 (A) (A) (A) (A) (A) (A) (A) (A) (A) (A) (A) (A)
                 (A) (A) (A) (A) (A) (A) (A) (A) (A) (A) (A) (A)
                 (A) (A) (A) (A) (A) (A) (A) (A) (A) (A) (A) (A)
                 (A) (A) (A) (A) (A) (A) (A) (A) (A) (A) (A) (A)
                 (A) (A) (A) (A) (A) (A) (A) (A) (A) (A) (A) (A)
                 (A) (A) (A) (A) (A) (A) (A) (A) (A) (A) (A) (A)
                 (A) (A) (A) (A) (A) (A) (A) (A) (A) (A) (A) (A)
                 (A) (A) (A) (A) (A) (A) (A) (A) (A) (A) (A) (A)
                 (A) (A) (A) (A) (A) (A) (A) (A) (A) (A) (A) (A)
                 (A) (A) (A) (A) (A) (A) (A) (A) (A) (A) (A) (A)
                 (A) (A) (A)
       Virtual   (A) (A) (A) (A) (A) (A) (A) (A) (A) (A) (A) (A)
                 (A) (A) (A) (A) (A) (A) (A) (A) (A) (A) (A) (A)
                 (A) (A) (A) (A) (A) (A) (A) (A) (A) (A) (A) (A)
                 (A) (A) (A) (A) (A) (A) (A) (A) (A) (A) (A) (A)
                 (A) (A) (A) (A) (A) (A) (A) (A) (A) (A) (A) (A)
                 (A) (A) (A) (A) (A) (A) (A) (A) (A) (A) (A) (A)
                 (A) (A) (A) (A) (A) (A) (A) (A) (A) (A) (A) (A)
                 (A) (A) (A) (A) (A) (A) (A) (A) (A) (A) (A) (A)
                 (A) (A) (A) (A) (A) (A) (A) (A) (A) (A) (A) (A)
                 (A) (A) (A) (A) (A) (A) (A) (A) (A) (A) (A) (A)
                 (A) (A) (A) (A) (A) (A) (A) (A) (A) (A) (A) (A)
                 (A) (A) (A) (A) (A) (A) (A) (A) (A) (A) (A) (A)
                 (A) (A) (A) (A) (A) (A) (A) (A) (A) (A) (A) (A)
                 (A) (A) (A) (A) (A) (A) (A) (A) (A) (A) (A) (A)
                 (A) (A) (A) (A) (A) (A) (A) (A) (A) (A) (A) (A)
                 (A) (A) (A) (A) (A) (A) (A) (A) (A) (A) (A) (A)
                 (A) (A) (A) (A) (A) (A) (A) (A) (A) (A) (A) (A)
                 (A) (A) (A) (A) (A) (A) (A) (A) (A) (A) (A) (A)
                 (A) (A) (A) (A) (A) (A) (A) (A) (A) (A) (A) (A)
                 (A) (A) (A) (A) (A) (A) (A) (A) (A) (A) (A) (A)
                 (A) (A) (A) (A) (A) (A) (A) (A) (A) (A) (A) (A)
                 (A) (A) (A) (A) (A) (A) (A) (A) (A) (A) (A) (A)
                 (A) (A) (A) (A) (A) (A) (A) (A) (A) (A) (A) (A)
                 (A) (A) (A) (A) (A) (A) (A) (A) (A) (A) (A) (A)
                 (A) (A) (A) (A) (A) (A) (A) (A) (A) (A) (A) (A)
                 (A) (A) (A) (A) (A) (A) (A) (A) (A) (A) (A) (A)
                 (A) (A) (A) (A) (A) (A) (A) (A) (A) (A) (A) (A)
                 (A) (A) (A) (A) (A) (A) (A) (A) (A) (A) (A) (A)
                 (A) (A) (A) (A) (A) (A) (A) (A) (A) (A) (A) (A)
                 (A) (A) (A) (A) (A) (A) (A) (A) (A) (A) (A) (A)
                 (A) (A) (A) (A) (A) (A) (A) (A) (A) (A) (A) (A)
                 (A) (A) (A) (A) (A) (A) (A) (A) (A) (A) (A) (A)
                 (A) (A) (A) (A) (A) (A) (A) (A) (A) (A) (A) (A)
                 (A) (A) (A) (A) (A) (A) (A) (A) (A) (A) (A) (A)
                 (A) (A) (A) (A) (A) (A) (A) (A) (A) (A) (A) (A)
                 (A) (A) (A) (A) (A) (A) (A) (A) (A) (A) (A) (A)
                 (A) (A) (A) (A) (A) (A) (A) (A) (A) (A) (A) (A)
                 (A) (A) (A) (A) (A) (A) (A) (A) (A) (A) (A) (A)
                 (A) (A) (A) (A) (A) (A) (A) (A) (A) (A) (A) (A)
                 (A) (A) (A) (A) (A) (A) (A) (A) (A) (A) (A) (A)
                 (A) (A) (A) (A) (A) (A) (A) (A) (A) (A) (A) (A)
                 (A) (A) (A) (A) (A) (A) (A) (A) (A) (A) (A) (A)
                 (A) (A) (A) (A) (A) (A) (A) (A) (A) (A) (A) (A)
                 (A) (A) (A) (A) (A) (A) (A) (A) (A) (A) (A) (A)
                 (A) (A) (A) (A) (A) (A) (A) (A) (A) (A) (A) (A)
                 (A) (A) (A) (A) (A) (A) (A) (A) (A) (A) (A) (A)
                 (A) (A) (A) (A) (A) (A) (A) (A) (A) (A) (A) (A)
                 (A) (A) (A) (A) (A) (A) (A) (A) (A) (A) (A) (A)
                 (A) (A) (A) (A) (A) (A) (A) (A) (A) (A) (A) (A)
                 (A) (A) (A) (A) (A) (A) (A) (A) (A) (A) (A) (A)
                 (A) (A) (A) (A) (A) (A) (A) (A) (A) (A) (A) (A)
                 (A) (A) (A) (A) (A) (A) (A) (A) (A)
 The electronic state is 1-A.
 Alpha  occ. eigenvalues --  -19.34725 -19.31410 -19.30983 -19.30711 -19.30472
 Alpha  occ. eigenvalues --  -19.30344 -19.30210 -19.30077 -19.26595 -10.39855
 Alpha  occ. eigenvalues --  -10.38781 -10.38122 -10.37825 -10.37731 -10.37642
 Alpha  occ. eigenvalues --  -10.37266 -10.37207 -10.37014 -10.36964 -10.33229
 Alpha  occ. eigenvalues --  -10.32336 -10.31879 -10.31840 -10.31738 -10.31655
 Alpha  occ. eigenvalues --  -10.31536 -10.31278 -10.31212 -10.31211 -10.31156
 Alpha  occ. eigenvalues --  -10.30902 -10.30876 -10.30831 -10.30819 -10.30775
 Alpha  occ. eigenvalues --  -10.30591 -10.30511 -10.30384 -10.30289 -10.30164
 Alpha  occ. eigenvalues --  -10.29960 -10.29782 -10.29768 -10.29576 -10.28926
 Alpha  occ. eigenvalues --  -10.28910 -10.28654 -10.28426  -1.21818  -1.17701
 Alpha  occ. eigenvalues --   -1.17077  -1.16867  -1.16736  -1.16623  -1.16385
 Alpha  occ. eigenvalues --   -1.16172  -1.13543  -0.96564  -0.95801  -0.95686
 Alpha  occ. eigenvalues --   -0.95378  -0.93902  -0.91524  -0.90760  -0.88961
 Alpha  occ. eigenvalues --   -0.88202  -0.87759  -0.85981  -0.85141  -0.84616
 Alpha  occ. eigenvalues --   -0.83952  -0.83865  -0.82102  -0.81635  -0.80857
 Alpha  occ. eigenvalues --   -0.79202  -0.78652  -0.75462  -0.74751  -0.74405
 Alpha  occ. eigenvalues --   -0.73152  -0.72480  -0.72410  -0.71921  -0.71114
 Alpha  occ. eigenvalues --   -0.70380  -0.69650  -0.68751  -0.68321  -0.66824
 Alpha  occ. eigenvalues --   -0.65981  -0.65674  -0.63813  -0.63144  -0.61784
 Alpha  occ. eigenvalues --   -0.60975  -0.60869  -0.59803  -0.59484  -0.59117
 Alpha  occ. eigenvalues --   -0.59060  -0.58855  -0.57805  -0.57256  -0.56650
 Alpha  occ. eigenvalues --   -0.56147  -0.55688  -0.55539  -0.55043  -0.54717
 Alpha  occ. eigenvalues --   -0.54264  -0.53684  -0.52832  -0.52697  -0.52331
 Alpha  occ. eigenvalues --   -0.51980  -0.51724  -0.51469  -0.51247  -0.51013
 Alpha  occ. eigenvalues --   -0.50696  -0.50544  -0.50234  -0.49863  -0.49776
 Alpha  occ. eigenvalues --   -0.49612  -0.49386  -0.49069  -0.48698  -0.48615
 Alpha  occ. eigenvalues --   -0.48155  -0.47900  -0.47659  -0.47403  -0.47089
 Alpha  occ. eigenvalues --   -0.46901  -0.46526  -0.46331  -0.46181  -0.46007
 Alpha  occ. eigenvalues --   -0.45708  -0.45142  -0.44972  -0.44691  -0.44474
 Alpha  occ. eigenvalues --   -0.44065  -0.43822  -0.43318  -0.42875  -0.42709
 Alpha  occ. eigenvalues --   -0.42248  -0.42134  -0.41490  -0.41410  -0.40869
 Alpha  occ. eigenvalues --   -0.40357  -0.39716  -0.39308  -0.38793  -0.36521
 Alpha  occ. eigenvalues --   -0.33600  -0.32519  -0.31955  -0.31438  -0.31182
 Alpha  occ. eigenvalues --   -0.30963  -0.30917  -0.29835  -0.29402  -0.28349
 Alpha  occ. eigenvalues --   -0.26513
 Alpha virt. eigenvalues --    0.01258   0.02196   0.06146   0.06692   0.06728
 Alpha virt. eigenvalues --    0.07831   0.08505   0.09044   0.09409   0.09891
 Alpha virt. eigenvalues --    0.10840   0.14699   0.14955   0.15360   0.16592
 Alpha virt. eigenvalues --    0.16931   0.17187   0.17357   0.17770   0.17879
 Alpha virt. eigenvalues --    0.18009   0.18870   0.19346   0.19740   0.20347
 Alpha virt. eigenvalues --    0.20897   0.21271   0.21658   0.21750   0.22574
 Alpha virt. eigenvalues --    0.22844   0.23070   0.23314   0.23962   0.24187
 Alpha virt. eigenvalues --    0.24589   0.24894   0.25206   0.25386   0.25548
 Alpha virt. eigenvalues --    0.25852   0.26098   0.26405   0.26459   0.26517
 Alpha virt. eigenvalues --    0.26947   0.27028   0.27234   0.27917   0.28163
 Alpha virt. eigenvalues --    0.28362   0.28680   0.29391   0.29730   0.30152
 Alpha virt. eigenvalues --    0.30420   0.30798   0.31387   0.31957   0.32232
 Alpha virt. eigenvalues --    0.32443   0.32692   0.33015   0.33210   0.33749
 Alpha virt. eigenvalues --    0.33933   0.34962   0.35254   0.35848   0.36118
 Alpha virt. eigenvalues --    0.36256   0.36482   0.36937   0.37903   0.38643
 Alpha virt. eigenvalues --    0.39378   0.39831   0.40288   0.40873   0.41104
 Alpha virt. eigenvalues --    0.42018   0.42444   0.43579   0.43818   0.44459
 Alpha virt. eigenvalues --    0.45024   0.45303   0.45338   0.46112   0.46505
 Alpha virt. eigenvalues --    0.47549   0.48216   0.48542   0.49573   0.50951
 Alpha virt. eigenvalues --    0.52138   0.52720   0.53543   0.53850   0.55365
 Alpha virt. eigenvalues --    0.56288   0.57223   0.57508   0.57947   0.58742
 Alpha virt. eigenvalues --    0.58818   0.58950   0.59457   0.59842   0.60212
 Alpha virt. eigenvalues --    0.60726   0.60855   0.61169   0.61480   0.61875
 Alpha virt. eigenvalues --    0.62287   0.62653   0.62921   0.63210   0.63348
 Alpha virt. eigenvalues --    0.63716   0.63909   0.63954   0.64515   0.64666
 Alpha virt. eigenvalues --    0.65083   0.65619   0.65930   0.66335   0.66651
 Alpha virt. eigenvalues --    0.66848   0.67194   0.67358   0.67535   0.68119
 Alpha virt. eigenvalues --    0.68332   0.68648   0.69041   0.69102   0.69330
 Alpha virt. eigenvalues --    0.69682   0.70048   0.70209   0.70948   0.71059
 Alpha virt. eigenvalues --    0.71156   0.71608   0.71737   0.71888   0.72164
 Alpha virt. eigenvalues --    0.72625   0.72915   0.73009   0.73297   0.73620
 Alpha virt. eigenvalues --    0.74369   0.74894   0.75148   0.75703   0.75910
 Alpha virt. eigenvalues --    0.76198   0.77419   0.77677   0.78394   0.78695
 Alpha virt. eigenvalues --    0.79194   0.79990   0.80433   0.80890   0.81580
 Alpha virt. eigenvalues --    0.82068   0.82821   0.82942   0.83434   0.83589
 Alpha virt. eigenvalues --    0.83804   0.84218   0.84615   0.84798   0.85263
 Alpha virt. eigenvalues --    0.85624   0.86418   0.86955   0.87672   0.87979
 Alpha virt. eigenvalues --    0.88413   0.88762   0.89113   0.89738   0.89906
 Alpha virt. eigenvalues --    0.90221   0.90429   0.90683   0.92136   0.92561
 Alpha virt. eigenvalues --    0.93026   0.93374   0.94172   0.94237   0.94806
 Alpha virt. eigenvalues --    0.95009   0.95082   0.95346   0.95618   0.95816
 Alpha virt. eigenvalues --    0.96497   0.96873   0.96968   0.97486   0.97623
 Alpha virt. eigenvalues --    0.97802   0.98194   0.98256   0.98447   0.98672
 Alpha virt. eigenvalues --    0.99012   0.99287   0.99365   0.99998   1.00426
 Alpha virt. eigenvalues --    1.00774   1.01095   1.01504   1.01916   1.02314
 Alpha virt. eigenvalues --    1.02587   1.02789   1.03174   1.03387   1.03846
 Alpha virt. eigenvalues --    1.04249   1.04428   1.04960   1.05069   1.05313
 Alpha virt. eigenvalues --    1.05645   1.06010   1.06496   1.06737   1.07040
 Alpha virt. eigenvalues --    1.07351   1.07711   1.07887   1.08100   1.08661
 Alpha virt. eigenvalues --    1.09205   1.09590   1.09976   1.10813   1.11497
 Alpha virt. eigenvalues --    1.12401   1.12888   1.12922   1.13431   1.14026
 Alpha virt. eigenvalues --    1.14171   1.14453   1.14519   1.15385   1.15855
 Alpha virt. eigenvalues --    1.16996   1.17493   1.17938   1.18574   1.18918
 Alpha virt. eigenvalues --    1.19404   1.20148   1.20349   1.21671   1.22386
 Alpha virt. eigenvalues --    1.22504   1.23871   1.25201   1.25509   1.25544
 Alpha virt. eigenvalues --    1.26287   1.27505   1.27646   1.28927   1.29053
 Alpha virt. eigenvalues --    1.29739   1.29921   1.30707   1.31212   1.31655
 Alpha virt. eigenvalues --    1.32391   1.32606   1.33815   1.34328   1.34853
 Alpha virt. eigenvalues --    1.35252   1.36270   1.37294   1.37461   1.38239
 Alpha virt. eigenvalues --    1.38703   1.39249   1.39668   1.40275   1.40962
 Alpha virt. eigenvalues --    1.41641   1.42085   1.42524   1.42842   1.43413
 Alpha virt. eigenvalues --    1.44198   1.44578   1.44749   1.45297   1.45395
 Alpha virt. eigenvalues --    1.45771   1.45936   1.46218   1.46512   1.46706
 Alpha virt. eigenvalues --    1.47302   1.47944   1.48774   1.49146   1.49747
 Alpha virt. eigenvalues --    1.50176   1.50913   1.52035   1.52213   1.52532
 Alpha virt. eigenvalues --    1.52821   1.53793   1.54001   1.54724   1.55174
 Alpha virt. eigenvalues --    1.55337   1.55798   1.56587   1.56913   1.57304
 Alpha virt. eigenvalues --    1.58245   1.58505   1.59435   1.60640   1.61537
 Alpha virt. eigenvalues --    1.62649   1.62942   1.66518   1.68904   1.69311
 Alpha virt. eigenvalues --    1.69542   1.70494   1.73223   1.75064   1.75190
 Alpha virt. eigenvalues --    1.76854   1.78275   1.78565   1.79487   1.80513
 Alpha virt. eigenvalues --    1.80977   1.81234   1.81314   1.81713   1.81934
 Alpha virt. eigenvalues --    1.82003   1.82329   1.82884   1.83428   1.83772
 Alpha virt. eigenvalues --    1.84384   1.84547   1.85150   1.85661   1.86172
 Alpha virt. eigenvalues --    1.86278   1.86662   1.87213   1.87546   1.88363
 Alpha virt. eigenvalues --    1.88427   1.88920   1.89408   1.89934   1.90298
 Alpha virt. eigenvalues --    1.90888   1.91561   1.91824   1.92498   1.92809
 Alpha virt. eigenvalues --    1.93843   1.94480   1.94581   1.94950   1.95375
 Alpha virt. eigenvalues --    1.95929   1.96131   1.96316   1.96351   1.96898
 Alpha virt. eigenvalues --    1.97321   1.98413   1.98789   1.99008   2.00136
 Alpha virt. eigenvalues --    2.00226   2.00652   2.01179   2.01483   2.01626
 Alpha virt. eigenvalues --    2.01685   2.02298   2.02826   2.03569   2.03666
 Alpha virt. eigenvalues --    2.04182   2.04458   2.05218   2.05589   2.05726
 Alpha virt. eigenvalues --    2.06563   2.06635   2.07312   2.07590   2.08266
 Alpha virt. eigenvalues --    2.08872   2.09604   2.10488   2.10766   2.11155
 Alpha virt. eigenvalues --    2.12169   2.12350   2.13207   2.13718   2.14631
 Alpha virt. eigenvalues --    2.15941   2.16692   2.16858   2.17358   2.18157
 Alpha virt. eigenvalues --    2.18500   2.19172   2.20311   2.20473   2.21545
 Alpha virt. eigenvalues --    2.21648   2.21835   2.21988   2.23480   2.25045
 Alpha virt. eigenvalues --    2.26102   2.26187   2.27605   2.27951   2.28602
 Alpha virt. eigenvalues --    2.29294   2.29918   2.31561   2.31921   2.32886
 Alpha virt. eigenvalues --    2.33130   2.33315   2.33888   2.35281   2.35949
 Alpha virt. eigenvalues --    2.36593   2.37073   2.37528   2.37980   2.38082
 Alpha virt. eigenvalues --    2.38984   2.39200   2.39581   2.40519   2.41062
 Alpha virt. eigenvalues --    2.41208   2.41639   2.41799   2.43223   2.43912
 Alpha virt. eigenvalues --    2.45169   2.45673   2.46028   2.46526   2.47231
 Alpha virt. eigenvalues --    2.47922   2.50107   2.50612   2.51121   2.51251
 Alpha virt. eigenvalues --    2.51518   2.51743   2.52578   2.53069   2.53243
 Alpha virt. eigenvalues --    2.53564   2.54506   2.54884   2.55356   2.55578
 Alpha virt. eigenvalues --    2.56308   2.56622   2.57200   2.57802   2.58191
 Alpha virt. eigenvalues --    2.58946   2.60583   2.61156   2.61897   2.62350
 Alpha virt. eigenvalues --    2.62658   2.64159   2.64906   2.65395   2.66809
 Alpha virt. eigenvalues --    2.67048   2.67332   2.68449   2.69805   2.70140
 Alpha virt. eigenvalues --    2.71050   2.71838   2.72061   2.72365   2.72689
 Alpha virt. eigenvalues --    2.73397   2.73836   2.74570   2.75896   2.76124
 Alpha virt. eigenvalues --    2.77193   2.78029   2.78670   2.80265   2.81519
 Alpha virt. eigenvalues --    2.82006   2.83780   2.84344   2.85383   2.85785
 Alpha virt. eigenvalues --    2.87133   2.87841   2.88544   2.90702   2.91364
 Alpha virt. eigenvalues --    2.91982   2.94694   2.96543   2.97402   2.98242
 Alpha virt. eigenvalues --    3.00626   3.01072   3.01334   3.01904   3.02853
 Alpha virt. eigenvalues --    3.03693   3.04551   3.05225   3.05709   3.07015
 Alpha virt. eigenvalues --    3.08535   3.09720   3.10515   3.11890   3.13332
 Alpha virt. eigenvalues --    3.14123   3.17058   3.19611   3.21371   3.22644
 Alpha virt. eigenvalues --    3.26759   3.30181   3.30654   3.34866   3.48292
 Alpha virt. eigenvalues --    3.48706   3.49945   3.54878   4.03837   4.04338
 Alpha virt. eigenvalues --    4.07932   4.08039   4.09979   4.12946   4.14028
 Alpha virt. eigenvalues --    4.18288   4.19113   4.20169   4.20993   4.22179
 Alpha virt. eigenvalues --    4.22853   4.24491   4.25495   4.26492   4.27814
 Alpha virt. eigenvalues --    4.29315   4.32294   4.33744   4.34165   4.36928
 Alpha virt. eigenvalues --    4.38086   4.39989   4.40585   4.41629   4.42723
 Alpha virt. eigenvalues --    4.42922   4.43650   4.48105   4.49638   4.52835
 Alpha virt. eigenvalues --    4.54848   4.56260   4.60552   4.63474   4.63557
 Alpha virt. eigenvalues --    4.64844   4.67209   4.69257   4.72009   4.73371
 Alpha virt. eigenvalues --    4.82276   4.89770   4.90549   4.91658   4.97257
 Alpha virt. eigenvalues --    4.98214
          Condensed to atoms (all electrons):
 Mulliken charges:
               1
     1  C   -0.312865
     2  C    0.358307
     3  C   -0.276692
     4  C   -0.222605
     5  C    0.066957
     6  C    0.314772
     7  C   -0.187531
     8  C   -0.235238
     9  O   -0.685092
    10  O   -0.689452
    11  C    0.429458
    12  C   -0.004827
    13  O   -0.516883
    14  C   -0.196693
    15  C   -0.265712
    16  C    0.325277
    17  C    0.012198
    18  C    0.286325
    19  O   -0.675122
    20  O   -0.678122
    21  C   -0.468568
    22  C   -0.209710
    23  C    0.142601
    24  C   -0.571255
    25  C   -0.567597
    26  O   -0.547353
    27  C    0.276320
    28  C   -0.272202
    29  C   -0.294950
    30  C    0.336288
    31  C    0.054067
    32  C   -0.249059
    33  C   -0.257870
    34  C    0.353615
    35  C   -0.369840
    36  C   -0.565713
    37  C    0.135403
    38  C   -0.252316
    39  C   -0.243376
    40  O   -0.687651
    41  C    0.317496
    42  C    0.021473
    43  C    0.322579
    44  C   -0.304040
    45  C    0.064885
    46  C   -0.285448
    47  O   -0.685965
    48  O   -0.691083
    49  H    0.186916
    50  H    0.183365
    51  H    0.193079
    52  H    0.176401
    53  H    0.181407
    54  H    0.456329
    55  H    0.454742
    56  H    0.199263
    57  H    0.193864
    58  H    0.463575
    59  H    0.461210
    60  H    0.212876
    61  H    0.185558
    62  H    0.154627
    63  H    0.185964
    64  H    0.178871
    65  H    0.177816
    66  H    0.181312
    67  H    0.183902
    68  H    0.183818
    69  H    0.217384
    70  H    0.200762
    71  H    0.197076
    72  H    0.196636
    73  H    0.180078
    74  H    0.184623
    75  H    0.183137
    76  H    0.186573
    77  H    0.184614
    78  H    0.174640
    79  H    0.205696
    80  H    0.459961
    81  H    0.188176
    82  H    0.191344
    83  H    0.457593
    84  H    0.449622
 Sum of Mulliken charges =  -0.00000
 Mulliken charges with hydrogens summed into heavy atoms:
               1
     1  C   -0.125948
     2  C    0.358307
     3  C   -0.093327
     4  C   -0.029526
     5  C    0.066957
     6  C    0.314772
     7  C   -0.011129
     8  C   -0.053831
     9  O   -0.228763
    10  O   -0.234710
    11  C    0.429458
    12  C   -0.004827
    13  O   -0.516883
    14  C    0.002570
    15  C   -0.071848
    16  C    0.325277
    17  C    0.012198
    18  C    0.286325
    19  O   -0.211547
    20  O   -0.216912
    21  C   -0.070134
    22  C   -0.055084
    23  C    0.142601
    24  C   -0.028604
    25  C   -0.018566
    26  O   -0.547353
    27  C    0.276320
    28  C   -0.054818
    29  C   -0.094188
    30  C    0.336288
    31  C    0.054067
    32  C   -0.051984
    33  C   -0.061234
    34  C    0.353615
    35  C   -0.005139
    36  C   -0.011388
    37  C    0.135403
    38  C   -0.077676
    39  C   -0.037680
    40  O   -0.227690
    41  C    0.317496
    42  C    0.021473
    43  C    0.322579
    44  C   -0.115864
    45  C    0.064885
    46  C   -0.094104
    47  O   -0.228372
    48  O   -0.241460
 Electronic spatial extent (au):  <R**2>=          32294.8657
 Charge=             -0.0000 electrons
 Dipole moment (field-independent basis, Debye):
    X=             -5.6264    Y=              1.1649    Z=              1.5118  Tot=              5.9413
 Quadrupole moment (field-independent basis, Debye-Ang):
   XX=           -229.4157   YY=           -250.8264   ZZ=           -250.1535
   XY=              3.9452   XZ=            -38.3026   YZ=            -15.4927
 Traceless Quadrupole moment (field-independent basis, Debye-Ang):
   XX=             14.0494   YY=             -7.3612   ZZ=             -6.6883
   XY=              3.9452   XZ=            -38.3026   YZ=            -15.4927
 Octapole moment (field-independent basis, Debye-Ang**2):
  XXX=           -462.5134  YYY=             89.4285  ZZZ=            101.5864  XYY=             52.6164
  XXY=            -10.8278  XXZ=            102.3883  XZZ=            -40.9115  YZZ=            -11.3211
  YYZ=            -25.8131  XYZ=             21.6688
 Hexadecapole moment (field-independent basis, Debye-Ang**3):
 XXXX=         -23038.4080 YYYY=          -6722.7247 ZZZZ=          -3919.1878 XXXY=           -468.2645
 XXXZ=           -385.8911 YYYX=            315.7494 YYYZ=           -280.8140 ZZZX=           -299.7352
[...]
 061,0.00000012,-0.00000034,-0.00000254,0.00000040,0.00000135,0.0000055
 8,-0.00000204,-0.00000321,-0.00000519,0.00001543,0.00000472,-0.0000107
 2,-0.00001261,-0.00000741,0.00001649,0.00003912,-0.00000491,0.00000156
 ,0.00000546,-0.00005688,0.00002499,0.00001161,0.00002153,-0.00002446,-
 0.00004939,-0.00000279,0.00003025,0.00002642,0.00003789,-0.00017589,-0
 .00005624,-0.00005317,0.00003204,0.00003004,0.00004937,-0.08976674,-0.
 02990753,-0.18569431,-0.00000109,-0.00000672,0.00004714,-0.00000019,0.
 00000026,0.00000017,-0.00000046,0.00000003,0.00000007,0.00000107,0.000
 00010,-0.00000060,0.00000015,0.00000009,0.00000053,0.00000321,-0.00000
 048,-0.00000156,-0.00000036,-0.00000015,-0.00000011,0.00000039,-0.0000
 0003,-0.00000003,0.00000043,-0.00000037,0.00000025,0.00000007,0.000000
 15,-0.00000120,0.00000607,-0.00000040,-0.00000377,0.00000193,-0.000001
 11,0.00000199,0.00000033,0.00000014,-0.00000085,-0.00000187,0.00000161
 ,0.00000091,0.00000965,0.00000345,-0.00000234,0.00000115,0.00000459,-0
 .00000120,-0.00000241,-0.00000163,0.00000253,0.00000083,0.,0.00000033,
 -0.00000020,0.00000088,0.00000020,-0.00000062,0.00000034,0.00000163,-0
 .00000157,-0.00000052,0.00000153,0.00000939,0.00001935,0.00000468,-0.0
 0060024,0.00017626,0.00043294,-0.00001861,0.00013793,0.00001099,-0.000
 04523,-0.00036477,-0.00019924,-0.00000148,-0.00000007,0.00000021,-0.00
 000015,0.00000038,0.00000142,0.00000043,-0.00000033,-0.00000013,0.0000
 0070,-0.00000122,0.00000154,0.00000093,-0.00000014,0.00000140,-0.00000
 002,-0.00000158,-0.00000089,0.00000103,0.00000236,0.00000216,-0.000004
 16,-0.00000815,0.00000273,-0.00000227,-0.00000100,-0.00000535,-0.00000
 196,0.00000031,-0.00000538,0.09620015,-0.00000014,0.00000110,0.0000006
 2,0.00000203,-0.00000207,-0.00000171,-0.00000053,0.00000188,0.00000160
 ,0.00000059,-0.00000038,0.00000022,0.00000372,0.00000132,0.00000356,-0
 .00000394,-0.00000248,-0.00000120,-0.00000867,0.00000013,-0.00000449,0
 .00000915,0.00000933,0.00001187,0.00000204,0.00000226,0.00000160,-0.00
 000357,0.00000189,0.00000161,0.00000187,-0.00002408,-0.00000187,-0.000
 00053,0.00000472,0.00000142,0.00000197,0.00001758,0.00000134,-0.000000
 66,-0.00000152,0.00000266,-0.00000447,-0.00000012,0.00000187,0.0000041
 6,-0.00000502,0.00000479,-0.00000432,0.00000875,0.00000297,0.00000500,
 -0.00000549,-0.00000593,-0.00000962,0.00000451,0.00000428,-0.00001144,
 0.00000864,-0.00000297,0.00000009,-0.00000169,0.00000854,0.00001058,-0
 .00001470,-0.00001469,-0.00000520,0.00001237,-0.00000105,0.00000201,-0
 .00000465,-0.00000704,0.00000050,-0.00000370,0.00000118,0.00002562,-0.
 00033246,0.00031309,0.00013734,0.00008710,0.00011136,-0.00003753,-0.00
 027677,0.00005372,-0.00146794,-0.00689540,0.00066940,-0.00091162,0.001
 30697,-0.00172512,0.00044551,0.00023844,0.00092657,-0.00032995,-0.0007
 2270,-0.00068927,-0.00026024,0.00281677,-0.00224144,-0.02230371,-0.013
 07117,-0.04675439,0.00000087,0.00000019,-0.00000044,-0.00000361,0.0000
 0065,0.00000191,0.00000794,-0.00000268,-0.00000483,-0.00000734,0.00002
 185,0.00000651,-0.00001623,-0.00001689,-0.00001014,0.00002794,0.000061
 18,-0.00000628,0.00000353,0.00000353,-0.00008259,0.00003596,0.00001532
 ,0.00002513,-0.00004870,-0.00006036,-0.00000151,0.00003778,0.00003498,
 0.00006412,-0.00007186,-0.00012692,-0.00008784,0.00004014,0.00005413,0
 .00007231,-0.00755861,-0.04558197,0.00181583,-0.00000105,-0.00000929,0
 .00007300,-0.00000027,0.00000042,0.00000026,-0.00000059,0.00000003,0.0
 0000004,0.00000148,0.00000014,-0.00000102,0.00000020,0.00000016,0.0000
 0074,0.00000433,-0.00000075,-0.00000244,-0.00000063,-0.00000027,-0.000
 00024,0.00000054,-0.00000009,-0.00000015,0.00000068,-0.00000046,0.0000
 0036,0.00000004,0.00000022,-0.00000180,0.00000771,-0.00000288,-0.00000
 719,0.00000316,-0.00000275,0.00000280,0.00000089,-0.00000022,-0.000001
 15,-0.00000338,0.00000379,0.00000141,0.00001778,0.00000289,-0.00000621
 ,0.00000271,0.00000952,-0.00000332,-0.00000414,-0.00000280,0.00000400,
 0.00000121,0.00000005,0.00000203,-0.00000055,0.00000158,0.00000025,-0.
 00000099,0.00000060,0.00000329,-0.00000285,-0.00000075,0.00000250,0.00
 001157,0.00003685,0.00000335,0.00016454,0.00003794,-0.00001831,0.00006
 179,0.00031164,-0.00002019,0.00080387,-0.00195337,0.00210190,-0.000002
 09,-0.00000012,0.00000025,-0.00000019,0.00000054,0.00000212,0.00000068
 ,-0.00000052,-0.00000021,0.00000098,-0.00000174,0.00000218,0.00000135,
 -0.00000020,0.00000206,0.00000008,-0.00000237,-0.00000115,0.00000133,0
 .00000324,0.00000289,-0.00000693,-0.00001237,0.00000442,-0.00000101,-0
 .00000493,-0.00000728,-0.00000463,0.00000163,-0.00001092,0.03121446,0.
 06402728,-0.00000012,0.00000120,0.00000060,0.00000203,-0.00000214,-0.0
 0000169,-0.00000059,0.00000198,0.00000159,0.00000061,-0.00000032,0.000
 00022,0.00000400,0.00000145,0.00000381,-0.00000421,-0.00000261,-0.0000
 0119,-0.00000949,0.00000031,-0.00000473,0.00000983,0.00001014,0.000012
 87,0.00000215,0.00000241,0.00000162,-0.00000366,0.00000197,0.00000158,
 0.00000322,-0.00002518,-0.00000022,-0.00000113,0.00000487,-0.00000015,
 0.00000156,0.00001815,0.00000074,-0.00000048,-0.00000179,0.00000398,-0
 .00000532,-0.00000097,0.00000115,0.00000662,-0.00000347,0.00001045,-0.
 00000472,0.00000945,0.00000205,0.00000570,-0.00000589,-0.00000498,-0.0
 0001027,0.00000515,0.00000332,-0.00001135,0.00000525,-0.00000850,0.000
 00098,-0.00000169,0.00000808,0.00000959,-0.00001511,-0.00001321,-0.000
 00554,0.00001161,-0.00000113,0.00000219,-0.00000426,-0.00000699,0.0000
 0035,-0.00000338,0.00000105,-0.00016062,-0.00040544,-0.00001407,0.0001
 9809,0.00058308,-0.00003845,0.00001534,-0.00009966,0.00015087,-0.00001
 388,-0.00048947,0.00228711,-0.00084137,0.00019348,0.00001702,0.0000435
 4,0.00015801,0.00004350,-0.00016976,-0.00005191,-0.00098610,0.00271642
 ,0.00444067,0.00344193,-0.00198642,-0.00015820,-0.00822786,0.00000093,
 0.00000013,-0.00000052,-0.00000393,0.00000063,0.00000208,0.00000860,-0
 .00000300,-0.00000497,-0.00000799,0.00002383,0.00000725,-0.00001660,-0
 .00001911,-0.00001119,0.00003080,0.00006632,-0.00000552,0.00000266,0.0
 0000864,-0.00008757,0.00003881,0.00001443,0.00003282,-0.00005967,-0.00
 006379,-0.00001369,0.00004963,0.00005698,0.00008440,-0.00007931,-0.000
 11169,-0.00017090,0.00004190,0.00004156,0.00007032,-0.19586031,-0.0495
 3426,-0.42911747,-0.00000132,-0.00001050,0.00007589,-0.00000029,0.0000
 0043,0.00000029,-0.00000063,0.00000001,0.00000009,0.00000157,0.0000001
 3,-0.00000100,0.00000025,0.00000018,0.00000081,0.00000477,-0.00000077,
 -0.00000257,-0.00000066,-0.00000030,-0.00000020,0.00000054,-0.00000011
 ,-0.00000009,0.00000070,-0.00000051,0.00000041,0.00000002,0.00000044,-
 0.00000199,0.00000836,-0.00000276,-0.00000721,0.00000257,-0.00000168,0
 .00000351,0.00000045,-0.00000008,-0.00000110,-0.00000327,0.00000350,0.
 00000135,0.00001656,0.00000556,-0.00000283,0.00000258,0.00000823,-0.00
 000451,-0.00000406,-0.00000249,0.00000402,0.00000103,0.00000033,0.0000
 0204,-0.00000062,0.00000164,0.00000032,-0.00000094,0.00000055,0.000003
 14,-0.00000263,-0.00000072,0.00000241,0.00001059,0.00003199,0.00001055
 ,0.00043684,0.00000677,0.00016564,0.00004549,0.00016528,-0.00002198,-0
 .00059276,-0.00025584,-0.00053290,-0.00000222,-0.00000010,0.00000028,-
 0.00000022,0.00000058,0.00000223,0.00000072,-0.00000056,-0.00000021,0.
 00000109,-0.00000186,0.00000233,0.00000143,-0.00000021,0.00000219,0.00
 000005,-0.00000254,-0.00000129,0.00000144,0.00000354,0.00000319,-0.000
 00740,-0.00001355,0.00000505,0.00000313,-0.00000567,-0.00000764,-0.000
 00254,-0.00000039,-0.00000919,0.19614896,0.04541812,0.43285216,0.00000
 773,-0.00001993,0.00000020,0.00002261,-0.00004526,-0.00003375,-0.00005
 474,0.00000803,0.00002378,0.00005680,0.00009403,0.00004081,-0.00007616
 ,-0.00000362,-0.00023226,0.00000506,-0.00002395,0.00000019,-0.00017621
 ,-0.00026033,0.00072162,0.00094949,0.00103972,0.00010790,0.00000278,0.
 00004647,-0.00000879,-0.00005144,0.00002328,0.00001756,-0.00062568,0.0
 0007690,-0.00032635,0.00004128,-0.00005896,0.00003215,0.00010555,-0.00
 049927,0.00015832,0.00001369,0.00002141,-0.00007077,0.00003397,0.00001
 350,0.00004070,-0.00004627,-0.00001359,-0.00013622,-0.00000252,-0.0000
 5214,0.00010221,-0.00003782,0.00021762,-0.00035299,0.00034549,-0.00026
 830,0.00033647,0.00006288,0.00002254,0.00012985,-0.00002915,-0.0000090
 3,-0.00001034,0.00005059,0.00005835,0.00002674,0.00000885,-0.00001274,
 0.00005866,0.00002157,0.00000672,0.00001395,0.00000016,0.00000763,0.00
 000290,0.00003628,0.00006643,0.00011444,-0.00013816,-0.00029175,0.0001
 4670,-0.00002264,0.00010175,0.00006009,0.00000628,-0.00002374,0.000020
 23,-0.00000890,0.00001434,-0.00002455,0.00006284,-0.00000102,0.0000928
 2,-0.00003131,-0.00002745,-0.00007023,0.00000893,0.00009771,-0.0000183
 4,0.00000020,-0.00009728,0.00004049,-0.00007395,-0.00008783,0.00058399
 ,-0.00036453,0.00049759,0.00014201,0.00144226,0.00001934,-0.00670751,0
 .00020349,0.00341302,0.00562947,0.00137606,-0.00122996,0.00135845,-0.0
 0016499,-0.00051310,0.00029702,0.00223069,0.00817835,0.00553644,-0.000
 38032,-0.00058768,0.00157263,-0.00047363,0.00013691,-0.00063788,-0.000
 04339,-0.00002130,0.00006918,0.00172009,0.00005321,0.00035981,0.001032
 97,-0.00169283,0.00327393,0.00003242,0.00011322,0.00002440,-0.10281535
 ,-0.12984056,-0.14160654,-0.00000057,0.00000310,0.00000229,-0.00000857
 ,0.00000204,0.00000365,-0.00004790,-0.00000066,0.00000291,0.00003528,-
 0.00017193,-0.00015391,-0.00160034,0.00067277,-0.00006703,-0.00001027,
 -0.00000018,-0.00001053,0.00000521,0.00000133,0.00000068,-0.00000537,-
 0.00000067,-0.00000355,0.00000179,-0.00000153,0.00001816,-0.00015192,-
 0.00012363,-0.00002577,-0.00000583,0.00000249,-0.00001973,0.00000394,0
 .00000520,0.00000753,0.00000498,0.00000343,-0.00001018,-0.00001960,-0.
 00001621,-0.00002642,-0.00001188,-0.00002238,-0.00001509,0.00001462,0.
 00000881,-0.00000914,-0.00001793,0.00001414,0.00000504,-0.00000494,-0.
 00000372,0.00000033,0.00000154,-0.00000251,-0.00000810,0.00000780,0.00
 000479,-0.00000680,-0.00000736,0.00000127,-0.00001976,-0.00000037,0.00
 000593,-0.00000407,0.00000328,-0.00000595,0.00000688,0.00000384,0.0000
 0990,0.00000665,-0.00070636,0.00043998,0.00041767,-0.00036865,0.000368
 53,0.00005514,0.00004649,-0.00010626,0.00000556,0.00015376,-0.00033328
 ,0.00023729,0.00030572,-0.00010187,0.00045603,-0.00200247,-0.00137598,
 -0.00020978,-0.00032142,0.00003509,-0.00032928,0.00004949,-0.00001582,
 -0.00003756,-0.00012080,-0.00001295,0.00004842,-0.00058293,0.00028335,
 -0.00007089,-0.00000519,-0.00000801,-0.00000838,0.10109905,-0.00000943
 ,0.00003354,0.00003618,0.00013181,-0.00016644,-0.00012648,-0.00009400,
 0.00012943,0.00012086,0.00006138,0.00008321,0.00005402,0.00014788,-0.0
 0001548,-0.00029154,-0.00017153,-0.00016585,-0.00007335,0.00018876,-0.
 00038607,0.00018139,-0.00052058,-0.00111634,-0.00075020,0.00010716,0.0
 0020669,0.00009183,-0.00026326,0.00013581,0.00010777,0.00058589,-0.000
 39967,0.00138812,-0.00007728,0.00006870,-0.00040707,-0.00021110,0.0007
 0389,-0.00054359,-0.00002261,-0.00011780,0.00010446,-0.00001079,-0.000
 08574,-0.00010549,0.00003901,0.00004659,0.00005440,-0.00000300,-0.0000
 3083,-0.00009745,0.00004572,0.00012954,0.00015029,-0.00015255,-0.00018
 921,-0.00013682,-0.00005135,-0.00005085,-0.00012181,-0.00000020,0.0000
 1788,-0.00002366,-0.00001630,0.00004424,0.00001782,0.00000505,-0.00003
 387,0.00001688,0.00001336,0.00001142,0.00003145,-0.00000460,0.00000451
 ,-0.00000500,0.00004515,0.00006011,0.00011768,-0.00000919,-0.00024359,
 0.00002653,0.00002630,0.00008036,0.00002761,0.00000645,-0.00000295,0.0
 0002578,-0.00003755,-0.00001861,-0.00007018,0.00004064,-0.00002427,0.0
 0006864,-0.00001831,-0.00000639,-0.00003525,0.00000761,0.00004830,-0.0
 0000166,-0.00000654,-0.00005543,0.00001020,0.00053326,-0.00088326,-0.0
 0001996,-0.00027778,0.00095976,0.00052087,0.00190899,-0.00101069,-0.00
 818983,-0.00052219,0.00351029,0.00566068,0.00084276,-0.00420529,0.0036
 0707,-0.00007604,-0.00017815,-0.00014963,0.01125799,0.01247932,0.00862
 521,-0.00123997,-0.00095649,0.00367060,0.00049497,0.00015983,-0.000258
 06,-0.00035106,-0.00091775,0.00063896,-0.00038081,0.00144379,-0.000942
 50,-0.00157688,-0.00006287,0.00556708,0.00002125,0.00006739,0.00001676
 ,-0.13375559,-0.18868425,-0.18260616,-0.00001536,0.00002526,0.00001893
 ,-0.00005035,0.00000572,0.00000969,0.00007597,0.00002772,-0.00000484,0
 .00000910,0.00002297,0.00008037,0.00115256,-0.00016207,0.00034360,-0.0
 0005721,-0.00001524,-0.00001979,0.00003520,-0.00000182,-0.00000227,-0.
 00000248,0.00000860,0.00003718,-0.00001023,-0.00000342,-0.00002289,-0.
 00012651,0.00012396,-0.00001767,-0.00000187,-0.00000070,0.00001241,-0.
 00000168,-0.00000974,-0.00000124,0.00000598,-0.00001141,0.00000202,-0.
 00000426,-0.00002462,-0.00004446,-0.00000761,-0.00002434,-0.00001559,0
 .00001339,0.00000393,-0.00000886,0.00000233,-0.00000080,0.00000542,0.0
 0000784,-0.00000411,-0.00000292,0.00000349,-0.00000173,-0.00000483,0.0
 0000577,-0.00000110,-0.00000415,-0.00001791,-0.00000003,-0.00001716,-0
 .00000041,0.00000364,-0.00000266,0.00000238,-0.00000377,0.00000583,0.0
 0000320,0.00000666,0.00000428,-0.00044015,0.00013952,-0.00015864,-0.00
 032742,0.00052179,0.00023459,0.00020454,-0.00018100,0.00002364,0.00019
 298,-0.00040647,0.00035379,0.00046881,-0.00021013,0.00068130,0.0001371
 9,-0.00038691,-0.00024117,-0.00014467,0.00020729,-0.00021136,0.0000049
 1,0.00003657,-0.00002214,-0.00001200,-0.00009092,-0.00003539,0.0004514
 9,-0.00002351,-0.00000696,-0.00000286,-0.00000499,-0.00000501,0.121794
 96,0.18001877,0.00000068,-0.00001562,0.00000004,0.00001637,-0.00003041
 ,-0.00002049,-0.00003251,0.00001006,0.00001518,0.00002899,0.00005491,0
 .00002220,-0.00005378,-0.00001021,-0.00020301,0.00001135,-0.00001705,-
 0.00000347,0.00010534,-0.00022730,0.00032336,0.00000443,0.00013882,-0.
 00008259,0.00000382,0.00003379,-0.00000390,-0.00003647,0.00001738,0.00
 001257,-0.00017283,0.00021994,-0.00002773,0.00007024,-0.00006955,0.000
 01325,0.00000814,-0.00025859,-0.00001255,0.00000349,0.00002877,-0.0000
 9362,0.00008010,0.00001434,0.00002047,-0.00008423,-0.00004752,-0.00017
 355,-0.00000237,-0.00007294,0.00006399,-0.00007325,0.00014576,-0.00021
 879,0.00031291,-0.00023223,0.00019450,0.00008602,0.00002957,0.00016180
 ,-0.00003941,-0.00000309,-0.00001929,0.00005829,0.00008052,0.00001180,
 -0.00001662,-0.00003234,0.00008237,0.00001694,0.00004861,-0.00002629,-
 0.00000988,0.00000764,0.00000372,0.00002896,0.00009433,0.00019311,0.00
 009317,-0.00007113,-0.00039958,-0.00002013,-0.00000255,0.00002134,0.00
 000771,-0.00004077,0.00002457,0.00000292,0.00003648,-0.00002231,0.0000
 1143,0.00002822,0.00011067,-0.00006090,-0.00005528,-0.00009585,0.00001
 634,0.00014728,-0.00003811,0.00000154,-0.00014467,0.00006616,0.0006495
 5,-0.00074078,-0.00020115,-0.00041449,0.00029874,-0.00059762,0.0010446
 6,-0.00023455,-0.00544318,0.00155458,0.00247804,0.00487258,0.00070701,
 0.00237918,0.00101837,-0.00041538,-0.00107214,0.00085190,-0.01626093,-
 0.02235658,-0.04352732,-0.00104357,-0.00147492,0.00325724,0.00038512,-
 0.00028691,-0.00199887,-0.00011835,-0.00014454,0.00105990,-0.00040057,
 -0.00108001,-0.00109456,0.00104518,0.00456037,-0.00186029,0.00004766,0
 .00016780,0.00003534,-0.11497515,-0.14502484,-0.23007924,0.00000040,0.
 00000143,0.00000179,-0.00000558,0.00000146,0.00000180,-0.00002327,0.00
 000105,0.00001360,-0.00002614,-0.00005674,-0.00008963,-0.00051604,0.00
 022480,0.00035472,-0.00000759,-0.00000123,-0.00000565,0.00000414,0.000
 00042,0.00000058,-0.00000980,0.00001075,0.00000048,0.00000159,-0.00000
 279,0.00002152,-0.00031644,-0.00002439,-0.00006392,-0.00000979,0.00000
 385,-0.00002757,0.00000568,0.00000241,0.00000952,0.00001266,0.00000341
 ,-0.00001272,-0.00002014,-0.00003065,-0.00005436,-0.00002043,-0.000040
 93,-0.00002424,0.00002780,0.00001699,-0.00000654,-0.00005244,-0.000089
 03,0.00003508,-0.00000276,-0.00000745,-0.00000125,0.00000005,-0.000005
 67,-0.00001336,0.00001378,0.00000444,-0.00001174,0.00000351,0.00000717
 ,-0.00004559,-0.00000080,0.00000845,-0.00000573,0.00000230,-0.00000790
 ,0.00001054,0.00000738,0.00001243,0.00000837,0.00000978,-0.00021119,-0
 .00020674,-0.00018768,0.00025134,0.00008316,0.00004366,-0.00002781,-0.
 00000511,-0.00008015,-0.00013078,0.00003407,0.00011501,-0.00005681,0.0
 0026613,0.00033314,0.00001860,-0.00019375,-0.00036137,-0.00020524,-0.0
 0066874,0.00000474,0.00000090,-0.00006190,0.00000793,-0.00001038,0.000
 09753,0.00002045,0.00002327,0.00009320,-0.00000792,-0.00001168,-0.0000
 1246,0.12886218,0.16305351,0.27428583\\-0.00000338,0.00000165,-0.00000
 178,-0.00000011,0.00000323,0.00000323,-0.00000003,-0.00000360,0.000002
 81,0.00000170,0.00000814,-0.00000407,-0.00000592,-0.00000874,0.0000002
 0,0.00000172,-0.00000673,0.00000319,0.00000070,0.00000426,-0.00000404,
 -0.00000142,0.,0.00000319,-0.00000184,0.00000232,0.00000099,-0.0000026
 4,-0.00000403,-0.00000139,-0.00000474,-0.00000109,-0.00000688,-0.00000
 602,-0.00000733,-0.00000547,0.00000316,0.00000376,0.00000266,0.0000054
 0,0.00000193,-0.00000912,0.00000269,0.00000697,0.00000344,-0.00000431,
 -0.00001024,0.00000691,0.00000412,0.00000144,-0.00000521,0.00000567,0.
 00001554,0.00000100,-0.00000175,-0.00001741,-0.00000434,-0.00000088,0.
 00000592,-0.00000568,-0.00001123,-0.00000274,0.00000874,0.00000979,-0.
 00001047,0.00000759,0.00001173,0.00001360,-0.00000781,-0.00000056,-0.0
 0000585,-0.00000246,-0.00000567,-0.00000282,-0.00000663,0.00000719,0.0
 0000947,0.00000001,-0.00000552,-0.00001218,0.00000179,-0.00000235,0.00
 000495,-0.00000041,0.00000028,-0.00000118,0.00000127,-0.00000381,-0.00
 000268,0.00000471,0.00000762,0.00000745,-0.00000075,0.00000109,-0.0000
 0268,-0.00000149,-0.00000134,-0.00000053,0.00000034,0.00000403,-0.0000
 0209,-0.00000065,0.00000213,-0.00000323,0.00000786,-0.00000134,-0.0000
 0212,-0.00000027,0.00000247,0.00000991,-0.00000053,0.00000556,0.000005
 14,0.00000383,0.00000387,0.00000056,-0.00000265,0.00000486,0.00000333,
 -0.00000206,-0.00001104,-0.00000688,0.00001146,0.00000233,0.00000947,-
 0.00001042,-0.00000388,-0.00000234,0.00000942,0.00000092,-0.00000836,-
 0.00000257,0.00000317,-0.00000092,-0.00000213,0.00000181,0.00000307,-0
 .00000210,0.00000006,0.00000174,-0.00000131,0.00000737,-0.00000640,-0.
 00001084,0.00000015,-0.00000095,-0.00000017,0.00000055,0.00000057,-0.0
 0000132,-0.00000116,-0.00000338,0.00000338,-0.00000060,0.00000216,0.00
 000003,-0.00000087,0.00000102,0.00000017,-0.00000035,-0.00000010,-0.00
 000264,-0.00000006,0.00000031,0.00000076,-0.00000230,-0.00000040,0.000
 00097,-0.00000275,-0.00000073,0.00000011,0.00000230,0.00000533,0.00000
 409,0.00000041,-0.00000420,0.00000204,-0.00000036,0.00000199,0.0000018
 7,-0.00000065,-0.00000171,0.00000314,-0.00000116,0.00000159,-0.0000007
 7,-0.00000118,-0.00000032,0.00000131,0.00000065,-0.00000205,0.00000027
 ,-0.00000088,0.00000125,0.00000040,-0.00000296,-0.00000058,-0.00000128
 ,0.00000259,0.00000082,0.00000030,0.00000103,-0.00000049,0.00000426,-0
 .00000052,-0.00000146,-0.00000072,0.00000120,0.00000031,-0.00000013,-0
 .00000069,-0.00000058,0.00000057,0.00000074,0.00000006,0.00000046,-0.0
 0000042,0.00000148,-0.00000184,0.00000013,-0.00000033,-0.00000353,0.00
 000023,0.00000123,-0.00000011,0.00000109,0.00000032,0.00000009,-0.0000
 0096,0.00000104,-0.00000188,-0.00000142,0.,0.00000054,-0.00000392,0.00
 000245,0.00000274,-0.00000605,0.00000192,0.00000295,-0.00000067,0.0000
 0226,0.00000113,-0.00000004,-0.00000040,0.00000007,0.00000238,0.000000
 21,0.00000266,-0.00000514,0.00000013,-0.00000154\\\@


       THE DEATH-KNELL OF THE ATOM

 SO THE ATOMS IN TURN, WE NOW CLEARLY DISCERN,
 FLY TO BITS WITH THE UTMOST FACILITY;
 THEY WEND ON THEIR WAY, AND, IN SPLITTING, DISPLAY
 AN ABSOLUTE LACK OF STABILITY.

          SIR WM. RAMSAY, 1905
 Job cpu time:       2 days  9 hours 28 minutes 28.2 seconds.
 Elapsed time:       0 days  1 hours 10 minutes 21.6 seconds.
 File lengths (MBytes):  RWF=   6018 Int=      0 D2E=      0 Chk=     77 Scr=      2
 Normal termination of Gaussian 16 at Wed Jul 12 23:45:36 2023.
